# vtk DataFile Version 2.0
insac_ib
ASCII
DATASET STRUCTURED_GRID
DIMENSIONS 101 101 1
POINTS 10201 float
0 0 0
0.01 0 0
0.02 0 0
0.03 0 0
0.04 0 0
0.05 0 0
0.06 0 0
0.07 0 0
0.08 0 0
0.09 0 0
0.1 0 0
0.11 0 0
0.12 0 0
0.13 0 0
0.14 0 0
0.15 0 0
0.16 0 0
0.17 0 0
0.18 0 0
0.19 0 0
0.2 0 0
0.21 0 0
0.22 0 0
0.23 0 0
0.24 0 0
0.25 0 0
0.26 0 0
0.27 0 0
0.28 0 0
0.29 0 0
0.3 0 0
0.31 0 0
0.32 0 0
0.33 0 0
0.34 0 0
0.35 0 0
0.36 0 0
0.37 0 0
0.38 0 0
0.39 0 0
0.4 0 0
0.41 0 0
0.42 0 0
0.43 0 0
0.44 0 0
0.45 0 0
0.46 0 0
0.47 0 0
0.48 0 0
0.49 0 0
0.5 0 0
0.51 0 0
0.52 0 0
0.53 0 0
0.54 0 0
0.55 0 0
0.56 0 0
0.57 0 0
0.58 0 0
0.59 0 0
0.6 0 0
0.61 0 0
0.62 0 0
0.63 0 0
0.64 0 0
0.65 0 0
0.66 0 0
0.67 0 0
0.68 0 0
0.69 0 0
0.7 0 0
0.71 0 0
0.72 0 0
0.73 0 0
0.74 0 0
0.75 0 0
0.76 0 0
0.77 0 0
0.78 0 0
0.79 0 0
0.8 0 0
0.81 0 0
0.82 0 0
0.83 0 0
0.84 0 0
0.85 0 0
0.86 0 0
0.87 0 0
0.88 0 0
0.89 0 0
0.9 0 0
0.91 0 0
0.92 0 0
0.93 0 0
0.94 0 0
0.95 0 0
0.96 0 0
0.97 0 0
0.98 0 0
0.99 0 0
1 0 0
0 0.01 0
0.01 0.01 0
0.02 0.01 0
0.03 0.01 0
0.04 0.01 0
0.05 0.01 0
0.06 0.01 0
0.07 0.01 0
0.08 0.01 0
0.09 0.01 0
0.1 0.01 0
0.11 0.01 0
0.12 0.01 0
0.13 0.01 0
0.14 0.01 0
0.15 0.01 0
0.16 0.01 0
0.17 0.01 0
0.18 0.01 0
0.19 0.01 0
0.2 0.01 0
0.21 0.01 0
0.22 0.01 0
0.23 0.01 0
0.24 0.01 0
0.25 0.01 0
0.26 0.01 0
0.27 0.01 0
0.28 0.01 0
0.29 0.01 0
0.3 0.01 0
0.31 0.01 0
0.32 0.01 0
0.33 0.01 0
0.34 0.01 0
0.35 0.01 0
0.36 0.01 0
0.37 0.01 0
0.38 0.01 0
0.39 0.01 0
0.4 0.01 0
0.41 0.01 0
0.42 0.01 0
0.43 0.01 0
0.44 0.01 0
0.45 0.01 0
0.46 0.01 0
0.47 0.01 0
0.48 0.01 0
0.49 0.01 0
0.5 0.01 0
0.51 0.01 0
0.52 0.01 0
0.53 0.01 0
0.54 0.01 0
0.55 0.01 0
0.56 0.01 0
0.57 0.01 0
0.58 0.01 0
0.59 0.01 0
0.6 0.01 0
0.61 0.01 0
0.62 0.01 0
0.63 0.01 0
0.64 0.01 0
0.65 0.01 0
0.66 0.01 0
0.67 0.01 0
0.68 0.01 0
0.69 0.01 0
0.7 0.01 0
0.71 0.01 0
0.72 0.01 0
0.73 0.01 0
0.74 0.01 0
0.75 0.01 0
0.76 0.01 0
0.77 0.01 0
0.78 0.01 0
0.79 0.01 0
0.8 0.01 0
0.81 0.01 0
0.82 0.01 0
0.83 0.01 0
0.84 0.01 0
0.85 0.01 0
0.86 0.01 0
0.87 0.01 0
0.88 0.01 0
0.89 0.01 0
0.9 0.01 0
0.91 0.01 0
0.92 0.01 0
0.93 0.01 0
0.94 0.01 0
0.95 0.01 0
0.96 0.01 0
0.97 0.01 0
0.98 0.01 0
0.99 0.01 0
1 0.01 0
0 0.02 0
0.01 0.02 0
0.02 0.02 0
0.03 0.02 0
0.04 0.02 0
0.05 0.02 0
0.06 0.02 0
0.07 0.02 0
0.08 0.02 0
0.09 0.02 0
0.1 0.02 0
0.11 0.02 0
0.12 0.02 0
0.13 0.02 0
0.14 0.02 0
0.15 0.02 0
0.16 0.02 0
0.17 0.02 0
0.18 0.02 0
0.19 0.02 0
0.2 0.02 0
0.21 0.02 0
0.22 0.02 0
0.23 0.02 0
0.24 0.02 0
0.25 0.02 0
0.26 0.02 0
0.27 0.02 0
0.28 0.02 0
0.29 0.02 0
0.3 0.02 0
0.31 0.02 0
0.32 0.02 0
0.33 0.02 0
0.34 0.02 0
0.35 0.02 0
0.36 0.02 0
0.37 0.02 0
0.38 0.02 0
0.39 0.02 0
0.4 0.02 0
0.41 0.02 0
0.42 0.02 0
0.43 0.02 0
0.44 0.02 0
0.45 0.02 0
0.46 0.02 0
0.47 0.02 0
0.48 0.02 0
0.49 0.02 0
0.5 0.02 0
0.51 0.02 0
0.52 0.02 0
0.53 0.02 0
0.54 0.02 0
0.55 0.02 0
0.56 0.02 0
0.57 0.02 0
0.58 0.02 0
0.59 0.02 0
0.6 0.02 0
0.61 0.02 0
0.62 0.02 0
0.63 0.02 0
0.64 0.02 0
0.65 0.02 0
0.66 0.02 0
0.67 0.02 0
0.68 0.02 0
0.69 0.02 0
0.7 0.02 0
0.71 0.02 0
0.72 0.02 0
0.73 0.02 0
0.74 0.02 0
0.75 0.02 0
0.76 0.02 0
0.77 0.02 0
0.78 0.02 0
0.79 0.02 0
0.8 0.02 0
0.81 0.02 0
0.82 0.02 0
0.83 0.02 0
0.84 0.02 0
0.85 0.02 0
0.86 0.02 0
0.87 0.02 0
0.88 0.02 0
0.89 0.02 0
0.9 0.02 0
0.91 0.02 0
0.92 0.02 0
0.93 0.02 0
0.94 0.02 0
0.95 0.02 0
0.96 0.02 0
0.97 0.02 0
0.98 0.02 0
0.99 0.02 0
1 0.02 0
0 0.03 0
0.01 0.03 0
0.02 0.03 0
0.03 0.03 0
0.04 0.03 0
0.05 0.03 0
0.06 0.03 0
0.07 0.03 0
0.08 0.03 0
0.09 0.03 0
0.1 0.03 0
0.11 0.03 0
0.12 0.03 0
0.13 0.03 0
0.14 0.03 0
0.15 0.03 0
0.16 0.03 0
0.17 0.03 0
0.18 0.03 0
0.19 0.03 0
0.2 0.03 0
0.21 0.03 0
0.22 0.03 0
0.23 0.03 0
0.24 0.03 0
0.25 0.03 0
0.26 0.03 0
0.27 0.03 0
0.28 0.03 0
0.29 0.03 0
0.3 0.03 0
0.31 0.03 0
0.32 0.03 0
0.33 0.03 0
0.34 0.03 0
0.35 0.03 0
0.36 0.03 0
0.37 0.03 0
0.38 0.03 0
0.39 0.03 0
0.4 0.03 0
0.41 0.03 0
0.42 0.03 0
0.43 0.03 0
0.44 0.03 0
0.45 0.03 0
0.46 0.03 0
0.47 0.03 0
0.48 0.03 0
0.49 0.03 0
0.5 0.03 0
0.51 0.03 0
0.52 0.03 0
0.53 0.03 0
0.54 0.03 0
0.55 0.03 0
0.56 0.03 0
0.57 0.03 0
0.58 0.03 0
0.59 0.03 0
0.6 0.03 0
0.61 0.03 0
0.62 0.03 0
0.63 0.03 0
0.64 0.03 0
0.65 0.03 0
0.66 0.03 0
0.67 0.03 0
0.68 0.03 0
0.69 0.03 0
0.7 0.03 0
0.71 0.03 0
0.72 0.03 0
0.73 0.03 0
0.74 0.03 0
0.75 0.03 0
0.76 0.03 0
0.77 0.03 0
0.78 0.03 0
0.79 0.03 0
0.8 0.03 0
0.81 0.03 0
0.82 0.03 0
0.83 0.03 0
0.84 0.03 0
0.85 0.03 0
0.86 0.03 0
0.87 0.03 0
0.88 0.03 0
0.89 0.03 0
0.9 0.03 0
0.91 0.03 0
0.92 0.03 0
0.93 0.03 0
0.94 0.03 0
0.95 0.03 0
0.96 0.03 0
0.97 0.03 0
0.98 0.03 0
0.99 0.03 0
1 0.03 0
0 0.04 0
0.01 0.04 0
0.02 0.04 0
0.03 0.04 0
0.04 0.04 0
0.05 0.04 0
0.06 0.04 0
0.07 0.04 0
0.08 0.04 0
0.09 0.04 0
0.1 0.04 0
0.11 0.04 0
0.12 0.04 0
0.13 0.04 0
0.14 0.04 0
0.15 0.04 0
0.16 0.04 0
0.17 0.04 0
0.18 0.04 0
0.19 0.04 0
0.2 0.04 0
0.21 0.04 0
0.22 0.04 0
0.23 0.04 0
0.24 0.04 0
0.25 0.04 0
0.26 0.04 0
0.27 0.04 0
0.28 0.04 0
0.29 0.04 0
0.3 0.04 0
0.31 0.04 0
0.32 0.04 0
0.33 0.04 0
0.34 0.04 0
0.35 0.04 0
0.36 0.04 0
0.37 0.04 0
0.38 0.04 0
0.39 0.04 0
0.4 0.04 0
0.41 0.04 0
0.42 0.04 0
0.43 0.04 0
0.44 0.04 0
0.45 0.04 0
0.46 0.04 0
0.47 0.04 0
0.48 0.04 0
0.49 0.04 0
0.5 0.04 0
0.51 0.04 0
0.52 0.04 0
0.53 0.04 0
0.54 0.04 0
0.55 0.04 0
0.56 0.04 0
0.57 0.04 0
0.58 0.04 0
0.59 0.04 0
0.6 0.04 0
0.61 0.04 0
0.62 0.04 0
0.63 0.04 0
0.64 0.04 0
0.65 0.04 0
0.66 0.04 0
0.67 0.04 0
0.68 0.04 0
0.69 0.04 0
0.7 0.04 0
0.71 0.04 0
0.72 0.04 0
0.73 0.04 0
0.74 0.04 0
0.75 0.04 0
0.76 0.04 0
0.77 0.04 0
0.78 0.04 0
0.79 0.04 0
0.8 0.04 0
0.81 0.04 0
0.82 0.04 0
0.83 0.04 0
0.84 0.04 0
0.85 0.04 0
0.86 0.04 0
0.87 0.04 0
0.88 0.04 0
0.89 0.04 0
0.9 0.04 0
0.91 0.04 0
0.92 0.04 0
0.93 0.04 0
0.94 0.04 0
0.95 0.04 0
0.96 0.04 0
0.97 0.04 0
0.98 0.04 0
0.99 0.04 0
1 0.04 0
0 0.05 0
0.01 0.05 0
0.02 0.05 0
0.03 0.05 0
0.04 0.05 0
0.05 0.05 0
0.06 0.05 0
0.07 0.05 0
0.08 0.05 0
0.09 0.05 0
0.1 0.05 0
0.11 0.05 0
0.12 0.05 0
0.13 0.05 0
0.14 0.05 0
0.15 0.05 0
0.16 0.05 0
0.17 0.05 0
0.18 0.05 0
0.19 0.05 0
0.2 0.05 0
0.21 0.05 0
0.22 0.05 0
0.23 0.05 0
0.24 0.05 0
0.25 0.05 0
0.26 0.05 0
0.27 0.05 0
0.28 0.05 0
0.29 0.05 0
0.3 0.05 0
0.31 0.05 0
0.32 0.05 0
0.33 0.05 0
0.34 0.05 0
0.35 0.05 0
0.36 0.05 0
0.37 0.05 0
0.38 0.05 0
0.39 0.05 0
0.4 0.05 0
0.41 0.05 0
0.42 0.05 0
0.43 0.05 0
0.44 0.05 0
0.45 0.05 0
0.46 0.05 0
0.47 0.05 0
0.48 0.05 0
0.49 0.05 0
0.5 0.05 0
0.51 0.05 0
0.52 0.05 0
0.53 0.05 0
0.54 0.05 0
0.55 0.05 0
0.56 0.05 0
0.57 0.05 0
0.58 0.05 0
0.59 0.05 0
0.6 0.05 0
0.61 0.05 0
0.62 0.05 0
0.63 0.05 0
0.64 0.05 0
0.65 0.05 0
0.66 0.05 0
0.67 0.05 0
0.68 0.05 0
0.69 0.05 0
0.7 0.05 0
0.71 0.05 0
0.72 0.05 0
0.73 0.05 0
0.74 0.05 0
0.75 0.05 0
0.76 0.05 0
0.77 0.05 0
0.78 0.05 0
0.79 0.05 0
0.8 0.05 0
0.81 0.05 0
0.82 0.05 0
0.83 0.05 0
0.84 0.05 0
0.85 0.05 0
0.86 0.05 0
0.87 0.05 0
0.88 0.05 0
0.89 0.05 0
0.9 0.05 0
0.91 0.05 0
0.92 0.05 0
0.93 0.05 0
0.94 0.05 0
0.95 0.05 0
0.96 0.05 0
0.97 0.05 0
0.98 0.05 0
0.99 0.05 0
1 0.05 0
0 0.06 0
0.01 0.06 0
0.02 0.06 0
0.03 0.06 0
0.04 0.06 0
0.05 0.06 0
0.06 0.06 0
0.07 0.06 0
0.08 0.06 0
0.09 0.06 0
0.1 0.06 0
0.11 0.06 0
0.12 0.06 0
0.13 0.06 0
0.14 0.06 0
0.15 0.06 0
0.16 0.06 0
0.17 0.06 0
0.18 0.06 0
0.19 0.06 0
0.2 0.06 0
0.21 0.06 0
0.22 0.06 0
0.23 0.06 0
0.24 0.06 0
0.25 0.06 0
0.26 0.06 0
0.27 0.06 0
0.28 0.06 0
0.29 0.06 0
0.3 0.06 0
0.31 0.06 0
0.32 0.06 0
0.33 0.06 0
0.34 0.06 0
0.35 0.06 0
0.36 0.06 0
0.37 0.06 0
0.38 0.06 0
0.39 0.06 0
0.4 0.06 0
0.41 0.06 0
0.42 0.06 0
0.43 0.06 0
0.44 0.06 0
0.45 0.06 0
0.46 0.06 0
0.47 0.06 0
0.48 0.06 0
0.49 0.06 0
0.5 0.06 0
0.51 0.06 0
0.52 0.06 0
0.53 0.06 0
0.54 0.06 0
0.55 0.06 0
0.56 0.06 0
0.57 0.06 0
0.58 0.06 0
0.59 0.06 0
0.6 0.06 0
0.61 0.06 0
0.62 0.06 0
0.63 0.06 0
0.64 0.06 0
0.65 0.06 0
0.66 0.06 0
0.67 0.06 0
0.68 0.06 0
0.69 0.06 0
0.7 0.06 0
0.71 0.06 0
0.72 0.06 0
0.73 0.06 0
0.74 0.06 0
0.75 0.06 0
0.76 0.06 0
0.77 0.06 0
0.78 0.06 0
0.79 0.06 0
0.8 0.06 0
0.81 0.06 0
0.82 0.06 0
0.83 0.06 0
0.84 0.06 0
0.85 0.06 0
0.86 0.06 0
0.87 0.06 0
0.88 0.06 0
0.89 0.06 0
0.9 0.06 0
0.91 0.06 0
0.92 0.06 0
0.93 0.06 0
0.94 0.06 0
0.95 0.06 0
0.96 0.06 0
0.97 0.06 0
0.98 0.06 0
0.99 0.06 0
1 0.06 0
0 0.07 0
0.01 0.07 0
0.02 0.07 0
0.03 0.07 0
0.04 0.07 0
0.05 0.07 0
0.06 0.07 0
0.07 0.07 0
0.08 0.07 0
0.09 0.07 0
0.1 0.07 0
0.11 0.07 0
0.12 0.07 0
0.13 0.07 0
0.14 0.07 0
0.15 0.07 0
0.16 0.07 0
0.17 0.07 0
0.18 0.07 0
0.19 0.07 0
0.2 0.07 0
0.21 0.07 0
0.22 0.07 0
0.23 0.07 0
0.24 0.07 0
0.25 0.07 0
0.26 0.07 0
0.27 0.07 0
0.28 0.07 0
0.29 0.07 0
0.3 0.07 0
0.31 0.07 0
0.32 0.07 0
0.33 0.07 0
0.34 0.07 0
0.35 0.07 0
0.36 0.07 0
0.37 0.07 0
0.38 0.07 0
0.39 0.07 0
0.4 0.07 0
0.41 0.07 0
0.42 0.07 0
0.43 0.07 0
0.44 0.07 0
0.45 0.07 0
0.46 0.07 0
0.47 0.07 0
0.48 0.07 0
0.49 0.07 0
0.5 0.07 0
0.51 0.07 0
0.52 0.07 0
0.53 0.07 0
0.54 0.07 0
0.55 0.07 0
0.56 0.07 0
0.57 0.07 0
0.58 0.07 0
0.59 0.07 0
0.6 0.07 0
0.61 0.07 0
0.62 0.07 0
0.63 0.07 0
0.64 0.07 0
0.65 0.07 0
0.66 0.07 0
0.67 0.07 0
0.68 0.07 0
0.69 0.07 0
0.7 0.07 0
0.71 0.07 0
0.72 0.07 0
0.73 0.07 0
0.74 0.07 0
0.75 0.07 0
0.76 0.07 0
0.77 0.07 0
0.78 0.07 0
0.79 0.07 0
0.8 0.07 0
0.81 0.07 0
0.82 0.07 0
0.83 0.07 0
0.84 0.07 0
0.85 0.07 0
0.86 0.07 0
0.87 0.07 0
0.88 0.07 0
0.89 0.07 0
0.9 0.07 0
0.91 0.07 0
0.92 0.07 0
0.93 0.07 0
0.94 0.07 0
0.95 0.07 0
0.96 0.07 0
0.97 0.07 0
0.98 0.07 0
0.99 0.07 0
1 0.07 0
0 0.08 0
0.01 0.08 0
0.02 0.08 0
0.03 0.08 0
0.04 0.08 0
0.05 0.08 0
0.06 0.08 0
0.07 0.08 0
0.08 0.08 0
0.09 0.08 0
0.1 0.08 0
0.11 0.08 0
0.12 0.08 0
0.13 0.08 0
0.14 0.08 0
0.15 0.08 0
0.16 0.08 0
0.17 0.08 0
0.18 0.08 0
0.19 0.08 0
0.2 0.08 0
0.21 0.08 0
0.22 0.08 0
0.23 0.08 0
0.24 0.08 0
0.25 0.08 0
0.26 0.08 0
0.27 0.08 0
0.28 0.08 0
0.29 0.08 0
0.3 0.08 0
0.31 0.08 0
0.32 0.08 0
0.33 0.08 0
0.34 0.08 0
0.35 0.08 0
0.36 0.08 0
0.37 0.08 0
0.38 0.08 0
0.39 0.08 0
0.4 0.08 0
0.41 0.08 0
0.42 0.08 0
0.43 0.08 0
0.44 0.08 0
0.45 0.08 0
0.46 0.08 0
0.47 0.08 0
0.48 0.08 0
0.49 0.08 0
0.5 0.08 0
0.51 0.08 0
[...]
POINT_DATA 10201
SCALARS pressure float 1
LOOKUP_TABLE default
0.0306583
0.0306613
0.0306453
0.0305897
0.0305051
0.0304021
0.0302894
0.0301737
0.0300604
0.0299532
0.0298545
0.0297661
0.0296893
0.0296249
0.0295732
0.0295344
0.029509
0.0294968
0.0294967
0.0295089
0.0295342
0.0295726
0.029624
0.0296885
0.0297661
0.0298571
0.0299616
0.0300798
0.0302119
0.030358
0.0305182
0.0306924
0.0308808
0.031083
0.031299
0.0315284
0.0317708
0.0320256
0.0322922
0.0325699
0.0328576
0.0331545
0.0334592
0.0337704
0.0340871
0.0344078
0.0347305
0.0350538
0.0353756
0.0356943
0.036008
0.0363149
0.0366133
0.0369013
0.0371772
0.0374394
0.0376863
0.0379168
0.0381294
0.0383233
0.0384975
0.0386514
0.0387846
0.0388969
0.0389882
0.0390589
0.0391091
0.0391389
0.0391497
0.0391439
0.0391216
0.0390828
0.0390294
0.038963
0.038885
0.0387971
0.0387007
0.0385974
0.0384889
0.0383766
0.0382621
0.0381468
0.0380323
0.03792
0.0378109
0.0377065
0.0376079
0.0375166
0.0374337
0.0373596
0.0372952
0.0372415
0.037199
0.0371684
0.0371503
0.0371443
0.0371486
0.0371627
0.0371849
0.0372097
0.0372216
0.0306656
0.0306677
0.0306517
0.0306005
0.0305238
0.0304305
0.030328
0.0302222
0.030118
0.0300188
0.029927
0.0298446
0.0297727
0.0297122
0.0296636
0.0296271
0.0296033
0.029592
0.0295925
0.0296049
0.0296299
0.0296676
0.029718
0.029781
0.029857
0.029946
0.0300482
0.0301638
0.030293
0.0304359
0.0305925
0.0307629
0.030947
0.0311447
0.0313558
0.03158
0.0318169
0.0320659
0.0323264
0.0325976
0.0328787
0.0331686
0.0334661
0.03377
0.0340793
0.0343924
0.0347076
0.0350233
0.0353376
0.0356489
0.0359555
0.0362555
0.0365472
0.0368289
0.037099
0.0373558
0.037598
0.0378241
0.0380331
0.0382239
0.0383958
0.038548
0.0386803
0.0387922
0.0388839
0.0389555
0.0390075
0.0390398
0.0390535
0.0390508
0.0390322
0.0389978
0.038949
0.0388876
0.038815
0.0387326
0.0386419
0.0385445
0.0384419
0.0383355
0.0382269
0.0381174
0.0380085
0.0379016
0.0377978
0.0376984
0.0376046
0.0375175
0.0374383
0.0373676
0.0373061
0.0372547
0.0372139
0.0371841
0.0371659
0.0371587
0.0371612
0.0371724
0.0371909
0.0372127
0.0372237
0.0307005
0.0306992
0.0306804
0.0306338
0.0305679
0.0304887
0.0304014
0.0303106
0.0302205
0.0301342
0.0300539
0.0299813
0.0299176
0.0298639
0.0298206
0.0297882
0.0297671
0.0297576
0.029759
0.0297715
0.029796
0.0298324
0.0298807
0.0299411
0.0300139
0.0300991
0.030197
0.0303078
0.0304316
0.0305686
0.0307187
0.0308821
0.0310586
0.0312482
0.0314507
0.0316657
0.0318928
0.0321316
0.0323814
0.0326415
0.032911
0.0331889
0.0334741
0.0337658
0.0340625
0.0343627
0.0346651
0.034968
0.0352699
0.0355689
0.0358635
0.036152
0.0364327
0.036704
0.0369645
0.0372124
0.0374466
0.0376658
0.0378687
0.0380546
0.0382226
0.038372
0.0385026
0.038614
0.0387062
0.0387794
0.038834
0.0388703
0.0388888
0.0388912
0.0388788
0.0388515
0.0388104
0.0387572
0.0386933
0.03862
0.0385388
0.0384511
0.0383582
0.0382617
0.0381628
0.0380629
0.0379635
0.0378657
0.0377708
0.0376799
0.037594
0.0375141
0.0374411
0.0373758
0.0373191
0.0372715
0.0372333
0.037205
0.0371867
0.0371781
0.0371781
0.0371856
0.0371997
0.0372193
0.0372304
0.0307722
0.0307641
0.030736
0.0306875
0.0306244
0.0305511
0.0304715
0.0303893
0.0303081
0.0302304
0.030158
0.0300925
0.0300351
0.0299865
0.0299474
0.0299181
0.0298994
0.0298913
0.0298932
0.0299057
0.0299295
0.0299644
0.0300108
0.0300687
0.0301383
0.03022
0.0303139
0.0304201
0.030539
0.0306705
0.0308149
0.030972
0.0311419
0.0313245
0.0315196
0.0317268
0.0319459
0.0321763
0.0324174
0.0326684
0.0329285
0.0331969
0.0334728
0.0337551
0.034042
0.0343324
0.0346251
0.0349185
0.0352111
0.035501
0.0357869
0.036067
0.0363398
0.0366037
0.0368572
0.0370988
0.0373274
0.0375415
0.0377402
0.0379225
0.0380877
0.0382352
0.0383645
0.0384755
0.0385681
0.0386425
0.0386989
0.0387379
0.0387597
0.0387657
0.0387576
0.0387353
0.0386996
0.0386523
0.0385947
0.0385279
0.0384535
0.0383727
0.0382869
0.0381976
0.0381059
0.0380131
0.0379206
0.0378296
0.0377413
0.0376566
0.0375766
0.037502
0.0374338
0.0373726
0.0373193
0.0372743
0.0372381
0.037211
0.037193
0.037184
0.0371832
0.0371897
0.037203
0.0372245
0.0372377
0.0308719
0.0308537
0.0308108
0.0307559
0.030691
0.0306191
0.0305435
0.0304669
0.0303918
0.0303204
0.0302541
0.0301943
0.0301419
0.0300977
0.0300621
0.0300356
0.0300187
0.0300116
0.0300139
0.0300261
0.0300489
0.0300823
0.0301264
0.0301815
0.0302479
0.0303258
0.0304155
0.0305171
0.030631
0.0307571
0.0308957
0.0310467
0.0312102
0.0313861
0.0315741
0.031774
0.0319855
0.032208
0.0324409
0.0326836
0.0329355
0.0331959
0.0334636
0.0337373
0.0340158
0.0342979
0.0345823
0.0348677
0.0351523
0.0354347
0.0357134
0.0359867
0.036253
0.0365109
0.0367588
0.0369954
0.0372195
0.0374297
0.037625
0.0378046
0.0379677
0.0381136
0.0382421
0.0383528
0.0384457
0.0385209
0.0385789
0.03862
0.0386445
0.0386534
0.0386487
0.0386305
0.0385992
0.0385566
0.038504
0.0384426
0.0383738
0.0382987
0.0382188
0.0381353
0.0380496
0.0379628
0.0378761
0.0377908
0.0377079
0.0376283
0.0375531
0.037483
0.0374189
0.0373614
0.0373111
0.0372686
0.0372341
0.037208
0.0371905
0.0371816
0.0371806
0.037187
0.0372007
0.0372247
0.0372401
0.0309902
0.0309602
0.0308991
0.0308346
0.0307649
0.0306914
0.0306166
0.0305427
0.0304714
0.0304042
0.0303424
0.030287
0.0302385
0.0301977
0.030165
0.0301405
0.030125
0.0301187
0.030121
0.0301325
0.030154
0.0301854
0.030227
0.0302791
0.030342
0.030416
0.0305013
0.0305982
0.0307069
0.0308276
0.0309604
0.0311054
0.0312626
0.0314318
0.031613
0.0318058
0.0320099
0.0322251
0.0324507
0.0326863
0.0329311
0.0331842
0.0334444
0.0337107
0.033982
0.034257
0.0345346
0.0348132
0.0350914
0.0353677
0.0356405
0.0359084
0.0361697
0.0364229
0.0366666
0.0368995
0.0371201
0.0373275
0.0375204
0.037698
0.0378596
0.0380045
0.0381324
0.038243
0.0383363
0.0384124
0.0384716
0.0385144
0.038541
0.0385524
0.0385503
0.0385352
0.0385076
0.0384687
0.0384202
0.038363
0.0382986
0.0382281
0.0381529
0.0380742
0.0379933
0.0379113
0.0378294
0.0377487
0.0376703
0.037595
0.0375237
0.0374573
0.0373965
0.037342
0.0372943
0.0372538
0.0372209
0.0371959
0.037179
0.0371704
0.0371695
0.0371763
0.0371908
0.0372174
0.0372348
0.0311198
0.0310768
0.0309958
0.0309196
0.0308424
0.0307647
0.0306884
0.0306148
0.0305453
0.0304807
0.0304218
0.0303694
0.0303238
0.0302855
0.0302548
0.0302318
0.0302172
0.030211
0.0302129
0.0302234
0.0302431
0.0302723
0.0303111
0.0303599
0.0304191
0.0304889
0.0305697
0.0306617
0.0307652
0.0308804
0.0310073
0.0311462
0.031297
0.0314598
0.0316344
0.0318206
0.0320182
0.032227
0.0324463
0.0326755
0.0329137
0.0331601
0.0334137
0.0336737
0.0339389
0.0342081
0.03448
0.0347533
0.0350265
0.035298
0.0355663
0.0358301
0.0360876
0.0363375
0.0365783
0.0368086
0.037027
0.0372325
0.0374239
0.0376003
0.0377611
0.0379055
0.0380333
0.0381441
0.0382379
0.0383148
0.0383751
0.0384193
0.0384478
0.0384612
0.0384611
0.0384485
0.0384236
0.0383877
0.0383423
0.0382884
0.0382275
0.0381606
0.0380891
0.0380142
0.0379371
0.0378589
0.0377808
0.0377038
0.0376289
0.037557
0.0374889
0.0374255
0.0373673
0.0373151
0.0372693
0.0372304
0.0371988
0.0371746
0.0371583
0.03715
0.0371495
0.0371566
0.037172
0.0372006
0.0372195
0.0312541
0.0311977
0.0310957
0.0310062
0.0309195
0.0308358
0.0307562
0.0306813
0.0306118
0.0305483
0.0304911
0.0304405
0.0303967
0.0303601
0.0303306
0.0303084
0.0302939
0.0302873
0.0302883
0.0302973
0.030315
0.0303415
0.0303772
0.0304225
0.0304776
0.030543
0.0306188
0.0307056
0.0308036
0.0309131
0.0310342
0.0311672
0.031312
0.0314688
0.0316376
0.0318181
0.0320099
0.0322126
0.0324259
0.0326489
0.0328811
0.0331217
0.0333699
0.0336246
0.0338848
0.0341493
0.0344168
0.0346859
0.0349552
0.0352233
0.0354885
0.0357495
0.0360046
0.0362523
0.0364913
0.0367202
0.0369375
0.0371421
0.037333
0.0375091
0.0376698
0.0378144
0.0379425
0.0380538
0.0381484
0.0382262
0.0382876
0.0383331
0.038363
0.0383781
0.0383796
0.038369
0.0383462
0.0383126
0.0382695
0.0382181
0.0381598
0.0380957
0.038027
0.0379549
0.0378807
0.0378054
0.0377302
0.037656
0.0375839
0.0375146
0.037449
0.0373878
0.0373317
0.0372812
0.0372369
0.0371992
0.0371684
0.0371449
0.0371289
0.0371209
0.0371205
0.0371279
0.0371437
0.0371733
0.0371929
0.0313873
0.0313173
0.0311935
0.0310898
0.0309926
0.0309016
0.0308173
0.0307397
0.030669
0.0306052
0.0305485
0.0304987
0.0304558
0.0304198
0.0303908
0.0303686
0.0303536
0.0303461
0.0303457
0.0303527
0.0303677
0.030391
0.0304231
0.0304642
0.0305149
0.0305755
0.0306464
0.030728
0.0308206
0.0309246
0.0310403
0.0311679
0.0313073
0.0314586
0.0316217
0.0317963
0.0319824
0.0321794
0.032387
0.0326046
0.0328317
0.0330675
0.0333111
0.0335616
0.0338178
0.0340785
0.0343427
0.0346088
0.0348756
0.0351414
0.0354048
0.0356642
0.0359181
0.036165
0.0364034
0.0366319
0.0368491
0.0370539
0.0372452
0.0374219
0.0375832
0.0377286
0.0378576
0.03797
0.0380656
0.0381445
0.0382071
0.0382539
0.0382852
0.0383016
0.0383045
0.0382954
0.0382743
0.0382423
0.0382009
0.0381514
0.038095
0.0380328
0.0379661
0.0378961
0.037824
0.0377508
0.0376777
0.0376055
0.0375354
0.037468
0.0374041
0.0373445
0.0372899
0.0372406
0.0371973
0.0371604
0.0371301
0.0371069
0.0370911
0.0370831
0.0370826
0.0370899
0.0371057
0.0371354
0.0371551
0.0315142
0.0314306
0.0312849
0.0311664
0.0310581
0.0309589
0.0308688
0.0307874
0.0307144
0.0306495
0.0305921
0.030542
0.030499
0.0304629
0.0304333
0.0304104
0.0303941
0.0303847
0.0303823
0.0303866
0.0303984
0.0304183
0.0304464
0.0304833
0.0305294
0.0305853
0.0306514
0.0307281
0.0308157
0.0309146
0.0310249
0.0311469
0.0312807
0.0314263
0.0315838
0.0317529
0.0319335
0.0321254
0.0323281
0.0325412
0.032764
0.0329957
0.0332355
0.0334826
0.0337357
0.0339939
0.0342557
0.03452
0.0347853
0.03505
0.0353127
0.0355719
0.0358258
0.036073
0.036312
0.0365414
0.0367597
0.0369657
0.0371582
0.0373364
0.0374992
0.0376462
0.0377767
0.0378906
0.0379876
0.038068
0.038132
0.0381801
0.0382127
0.0382304
0.0382345
0.0382265
0.0382067
0.0381759
0.0381358
0.0380876
0.0380324
0.0379715
0.0379062
0.0378375
0.0377668
0.037695
0.0376232
0.0375524
0.0374835
0.0374173
0.0373545
0.037296
0.0372421
0.0371936
0.0371508
0.0371142
0.0370841
0.0370609
0.0370449
0.0370366
0.0370358
0.0370427
0.0370579
0.037087
0.0371063
0.0316304
0.0315333
0.0313658
0.0312323
0.0311123
0.0310042
0.0309075
0.0308214
0.030745
0.0306778
0.0306189
0.0305677
0.0305238
0.0304866
0.0304559
0.0304315
0.0304133
0.0304015
0.0303965
0.0303978
0.0304063
0.0304225
0.0304467
0.0304794
0.030521
0.0305721
0.0306331
0.0307044
0.0307866
0.03088
0.0309847
0.0311011
0.0312294
0.0313696
0.0315219
0.0316861
0.031862
0.0320494
0.0322479
0.032457
0.032676
0.0329044
0.0331413
0.0333858
0.0336368
0.0338933
0.0341539
0.0344173
0.0346822
0.0349471
0.0352103
0.0354702
0.0357254
0.0359742
0.036215
0.0364463
0.0366668
0.0368751
0.03707
0.0372505
0.0374157
0.0375649
0.0376977
0.0378136
0.0379127
0.0379949
0.0380606
0.0381101
0.0381442
0.0381632
0.0381682
0.0381614
0.0381426
0.0381126
0.0380734
0.0380259
0.0379715
0.0379114
0.0378468
0.0377789
0.0377089
0.0376378
0.0375667
0.0374965
0.0374283
0.0373626
0.0373004
0.0372422
0.0371887
0.0371403
0.0370976
0.0370609
0.0370306
0.037007
0.0369905
0.0369815
0.0369801
0.0369862
0.0370005
0.0370283
0.0370469
0.0317318
0.0316214
0.0314321
0.0312834
0.0311512
0.0310336
0.0309298
0.0308384
0.0307582
0.0306881
0.030627
0.0305742
0.0305287
0.0304899
0.0304574
0.030431
0.0304105
0.030396
0.0303878
0.030386
0.0303906
0.0304024
0.030422
0.0304498
0.0304864
0.0305322
0.0305878
0.0306536
0.0307303
0.0308182
0.0309176
0.0310288
0.0311521
0.0312875
0.031435
0.0315947
0.0317664
0.0319497
0.0321445
0.0323502
0.0325663
0.0327921
0.0330268
0.0332695
0.0335192
0.0337749
0.0340352
0.0342988
0.0345644
0.0348304
0.0350952
0.0353572
0.0356147
0.0358662
0.03611
0.0363445
0.0365683
0.03678
0.0369783
0.0371621
0.0373306
0.037483
0.0376187
0.0377374
0.037839
0.0379235
0.0379913
0.0380427
0.0380784
0.0380986
0.0381048
0.0380989
0.0380809
0.0380516
0.0380129
0.0379659
0.0379118
0.037852
0.0377876
0.0377199
0.0376501
0.0375791
0.0375081
0.037438
0.0373698
0.0373041
0.0372418
0.0371835
0.0371297
0.037081
0.0370379
0.0370007
0.0369698
0.0369454
0.036928
0.0369181
0.0369156
0.0369205
0.0369335
0.0369596
0.0369771
0.0318142
0.0316906
0.0314796
0.0313156
0.0311712
0.0310443
0.0309335
0.0308368
0.0307526
0.0306792
0.0306155
0.0305601
0.0305123
0.0304711
0.030436
0.0304068
0.0303831
0.0303651
0.0303529
0.030347
0.0303472
0.0303542
0.0303687
0.0303913
0.0304225
0.030463
0.0305133
0.0305739
0.0306454
0.0307281
0.0308225
0.0309289
0.0310474
0.0311783
0.0313215
0.0314771
0.031645
0.0318249
0.0320165
0.0322194
0.0324331
0.0326569
0.0328901
0.0331319
0.0333811
0.0336368
0.0338977
0.0341625
0.0344297
0.0346979
0.0349654
0.0352305
0.0354916
0.035747
0.0359949
0.0362338
0.0364621
0.0366783
0.0368811
0.0370694
0.0372422
0.0373986
0.0375381
0.0376603
0.0377651
0.0378525
0.0379227
0.0379763
0.0380139
0.0380357
0.0380431
0.0380381
0.0380209
0.0379922
0.0379537
0.0379069
0.0378528
0.0377929
0.0377283
0.0376604
0.0375902
0.0375188
0.0374474
0.0373768
0.037308
0.0372418
0.0371789
0.0371199
0.0370654
0.0370159
0.0369719
0.0369337
0.0369018
0.0368763
0.0368577
0.0368464
0.0368426
0.036846
0.0368573
0.0368812
0.0368974
0.0318732
0.0317366
0.0315045
0.0313258
0.03117
0.0310341
0.030916
0.0308134
0.0307244
0.0306471
0.0305799
0.0305213
0.0304704
0.030426
0.0303877
0.0303549
0.0303274
0.0303052
0.0302885
0.0302778
0.0302734
0.0302755
0.0302848
0.0303022
0.0303282
0.0303634
0.0304085
0.030464
0.0305304
0.0306083
0.0306979
0.0307997
0.0309139
0.0310407
0.03118
0.0313321
0.0314966
0.0316735
0.0318625
0.0320632
0.0322751
0.0324976
0.03273
0.0329714
0.0332209
0.0334774
0.0337397
0.0340065
0.0342763
0.0345477
0.034819
0.0350884
0.0353541
0.0356145
0.0358678
0.0361123
0.0363462
0.0365682
0.0367767
0.0369705
0.0371485
0.03731
0.0374542
0.0375808
0.0376895
0.0377804
0.0378537
0.0379099
0.0379497
0.0379734
0.0379822
0.0379782
0.0379617
0.0379335
0.0378953
0.0378484
0.0377941
0.0377337
0.0376686
0.0376
0.037529
0.0374568
0.0373844
0.0373129
0.0372431
0.0371757
0.0371117
0.0370515
0.0369958
0.036945
0.0368996
0.0368601
0.0368267
0.0367998
0.0367795
0.0367666
0.036761
0.0367627
0.036772
0.0367934
0.0368082
0.0319051
0.0317563
0.0315044
0.0313117
0.0311442
0.0309987
0.0308727
0.0307638
0.0306695
0.0305878
0.0305167
0.0304545
0.0303999
0.0303519
0.0303098
0.0302729
0.0302411
0.0302144
0.030193
0.0301771
0.0301676
0.0301647
0.0301688
0.0301808
0.0302016
0.0302316
0.0302716
0.0303222
0.0303838
0.0304571
0.0305424
0.03064
0.0307503
0.0308734
0.0310094
0.0311583
0.03132
0.0314945
0.0316814
0.0318804
0.032091
0.0323127
0.0325449
0.0327866
0.033037
0.0332951
0.0335596
0.0338292
0.0341025
0.034378
0.034654
0.0349287
0.0352003
0.0354669
0.0357267
0.0359779
0.0362188
0.0364477
0.0366631
0.0368636
0.0370481
0.0372157
0.0373656
0.0374975
0.0376109
0.0377061
0.0377831
0.0378425
0.0378849
0.0379108
0.0379213
0.0379184
0.0379028
0.0378751
0.0378369
0.0377899
0.0377352
0.0376742
0.0376082
0.0375385
0.0374664
0.0373929
0.0373192
0.0372462
0.0371748
0.0371059
0.0370402
0.0369784
0.0369209
0.0368684
0.0368213
0.03678
0.0367447
0.0367159
0.0366938
0.0366787
0.0366711
0.0366709
0.0366779
0.0366965
0.0367098
0.0319083
0.0317477
0.031476
0.0312688
0.0310892
0.030934
0.0308003
0.030685
0.0305855
0.0304991
0.0304237
0.0303575
0.0302989
0.0302467
0.0302002
0.0301588
0.0301223
0.0300906
0.030064
0.0300428
0.0300278
0.0300196
0.0300186
0.0300253
0.0300408
0.0300658
0.030101
0.030147
0.0302042
0.0302734
0.0303547
0.0304487
0.0305556
0.0306755
0.0308086
0.0309549
0.0311143
0.0312868
0.0314721
0.0316699
0.0318798
0.0321012
0.0323337
0.0325763
0.0328282
0.0330885
0.0333558
0.0336291
0.0339067
0.0341871
0.0344689
0.0347499
0.0350283
0.0353023
0.0355699
0.0358291
0.0360782
0.0363153
0.0365388
0.0367472
0.0369394
0.0371142
0.037271
0.037409
0.0375281
0.0376283
0.0377098
0.037773
0.0378186
0.0378471
0.0378595
0.037858
0.0378434
0.0378163
0.0377783
0.037731
0.0376757
0.0376138
0.0375468
0.0374758
0.0374022
0.037327
0.0372515
0.0371766
0.0371033
0.0370324
0.0369646
0.0369006
0.036841
0.0367863
0.036737
0.0366934
0.0366559
0.0366248
0.0366004
0.036583
0.036573
0.0365705
0.0365751
0.0365907
0.0366024
0.0318798
0.0317068
0.0314147
0.0311929
0.0310017
0.0308372
0.0306958
0.0305742
0.0304692
0.0303779
0.030298
0.0302273
0.0301642
0.0301075
0.0300562
0.0300098
0.0299681
0.0299311
0.0298991
0.0298725
0.0298518
0.0298381
0.029832
0.0298338
0.0298443
0.0298646
0.0298953
0.0299371
0.0299905
0.030056
0.030134
0.0302249
0.0303289
0.0304462
0.030577
0.0307212
0.0308789
0.0310499
0.0312341
0.0314311
0.0316407
0.0318624
0.0320955
0.0323395
0.0325934
0.0328563
0.0331272
0.0334047
0.0336873
0.0339736
0.0342619
0.0345502
0.0348366
0.0351191
0.0353956
0.0356641
0.0359227
0.0361693
0.0364022
0.0366199
0.036821
0.0370043
0.0371689
0.0373143
0.0374401
0.0375462
0.0376329
0.0377005
0.0377499
0.0377815
0.0377964
0.0377965
0.0377831
0.0377567
0.0377189
0.0376713
0.0376153
0.0375525
0.0374841
0.0374116
0.0373361
0.037259
0.0371813
0.0371041
0.0370284
0.036955
0.0368847
0.0368181
0.0367559
0.0366986
0.0366466
0.0366003
0.0365602
0.0365265
0.0364995
0.0364794
0.0364668
0.0364617
0.0364637
0.0364763
0.0364862
0.0318137
0.0316286
0.0313167
0.0310811
0.0308787
0.0307049
0.030556
0.030428
0.0303174
0.0302211
0.0301364
0.0300609
0.029993
0.0299313
0.0298748
0.0298232
0.029776
0.0297335
0.0296959
0.0296637
0.0296377
0.0296185
0.0296072
0.0296045
0.0296105
0.0296265
0.0296533
0.0296915
0.0297417
0.0298042
0.0298795
0.029968
0.0300699
0.0301853
0.0303144
0.0304571
0.0306135
0.0307836
0.030967
0.0311638
0.0313734
0.0315956
0.0318298
0.0320754
0.0323318
0.0325978
0.0328726
0.0331549
0.0334432
0.0337361
0.0340317
0.0343283
0.0346237
0.0349158
0.0352024
0.0354815
0.0357508
0.0360083
0.0362521
0.0364804
0.0366917
0.0368848
0.0370585
0.0372124
0.0373458
0.0374588
0.0375515
0.0376244
0.0376781
0.0377135
0.0377312
0.0377332
0.0377213
0.0376959
0.0376582
0.0376104
0.0375538
0.0374898
0.03742
0.0373456
0.0372682
0.0371887
0.0371085
0.0370287
0.0369502
0.0368739
0.0368006
0.036731
0.0366657
0.0366053
0.0365502
0.0365009
0.0364577
0.036421
0.036391
0.036368
0.0363524
0.0363445
0.0363439
0.0363533
0.0363614
0.0317064
0.0315098
0.0311791
0.0309301
0.0307167
0.030534
0.0303776
0.0302432
0.030127
0.0300255
0.0299357
0.0298553
0.0297823
0.0297153
0.0296535
0.0295963
0.0295435
0.0294953
0.0294521
0.0294145
0.0293832
0.0293589
0.0293429
0.0293359
0.0293382
0.0293505
0.0293741
0.0294096
0.0294572
0.0295177
0.0295912
0.0296781
0.0297785
0.0298927
0.0300208
0.0301626
0.0303184
0.0304879
0.0306711
0.0308678
0.0310778
0.0313008
0.0315363
0.0317839
0.0320429
0.0323124
0.0325915
0.0328789
0.0331735
0.0334734
0.0337772
0.0340828
0.0343882
0.034691
0.034989
0.0352799
0.0355614
0.0358312
0.0360872
0.0363275
0.0365505
0.0367546
0.0369388
0.0371023
0.0372445
0.0373654
0.0374651
0.037544
0.0376028
0.0376424
0.0376634
0.0376678
0.0376577
0.0376334
0.0375961
0.0375481
0.0374908
0.0374256
0.0373542
0.0372779
0.0371981
0.0371161
0.037033
0.0369502
0.0368685
0.0367889
0.0367122
0.0366391
0.0365703
0.0365064
0.0364478
0.036395
0.0363484
0.0363083
0.036275
0.0362488
0.0362299
0.0362189
0.0362154
0.0362216
0.0362279
0.0315554
0.0313476
0.0309985
0.0307364
0.0305124
0.0303209
0.0301572
0.0300166
0.0298947
0.0297879
0.029693
0.0296074
0.0295291
0.0294567
0.0293893
0.0293265
0.029268
0.0292143
0.0291656
0.0291228
0.0290865
0.0290577
0.0290374
0.0290268
0.0290262
0.0290358
0.0290572
0.0290908
0.029137
0.0291964
0.029269
0.0293553
0.0294552
0.0295691
0.0296968
0.0298385
0.0299941
0.0301635
0.0303468
0.0305438
0.0307544
0.0309784
0.0312153
0.031465
0.0317267
0.0319998
0.0322833
0.0325763
0.0328774
0.033185
0.0334974
0.0338128
0.034129
0.0344436
0.0347541
0.0350581
0.0353531
0.0356366
0.0359064
0.0361602
0.0363963
0.036613
0.036809
0.0369834
0.0371356
0.0372655
0.0373731
0.0374588
0.0375235
0.0375679
0.0375928
0.0375999
0.0375919
0.0375689
0.0375323
0.0374841
0.0374261
0.0373597
0.0372865
0.037208
0.0371257
0.0370409
0.0369547
0.0368685
0.0367833
0.0367
0.0366195
0.0365425
0.0364698
0.0364019
0.0363394
0.0362827
0.0362322
0.0361883
0.0361514
0.0361216
0.0360993
0.0360849
0.0360783
0.0360813