# vtk DataFile Version 2.0

ASCII
DATASET STRUCTURED_GRID
DIMENSIONS 10 10 1
POINTS 100 float
0 0 0
0.111111 0 0
0.222222 0 0
0.333333 0 0
0.444444 0 0
0.555556 0 0
0.666667 0 0
0.777778 0 0
0.888889 0 0
1 0 0
0 0.111111 0
0.111111 0.111111 0
0.222222 0.111111 0
0.333333 0.111111 0
0.444444 0.111111 0
0.555556 0.111111 0
0.666667 0.111111 0
0.777778 0.111111 0
0.888889 0.111111 0
1 0.111111 0
0 0.222222 0
0.111111 0.222222 0
0.222222 0.222222 0
0.333333 0.222222 0
0.444444 0.222222 0
0.555556 0.222222 0
0.666667 0.222222 0
0.777778 0.222222 0
0.888889 0.222222 0
1 0.222222 0
0 0.333333 0
0.111111 0.333333 0
0.222222 0.333333 0
0.333333 0.333333 0
0.444444 0.333333 0
0.555556 0.333333 0
0.666667 0.333333 0
0.777778 0.333333 0
0.888889 0.333333 0
1 0.333333 0
0 0.444444 0
0.111111 0.444444 0
0.222222 0.444444 0
0.333333 0.444444 0
0.444444 0.444444 0
0.555556 0.444444 0
0.666667 0.444444 0
0.777778 0.444444 0
0.888889 0.444444 0
1 0.444444 0
0 0.555556 0
0.111111 0.555556 0
0.222222 0.555556 0
0.333333 0.555556 0
0.444444 0.555556 0
0.555556 0.555556 0
0.666667 0.555556 0
0.777778 0.555556 0
0.888889 0.555556 0
1 0.555556 0
0 0.666667 0
0.111111 0.666667 0
0.222222 0.666667 0
0.333333 0.666667 0
0.444444 0.666667 0
0.555556 0.666667 0
0.666667 0.666667 0
0.777778 0.666667 0
0.888889 0.666667 0
1 0.666667 0
0 0.777778 0
0.111111 0.777778 0
0.222222 0.777778 0
0.333333 0.777778 0
0.444444 0.777778 0
0.555556 0.777778 0
0.666667 0.777778 0
0.777778 0.777778 0
0.888889 0.777778 0
1 0.777778 0
0 0.888889 0
0.111111 0.888889 0
0.222222 0.888889 0
0.333333 0.888889 0
0.444444 0.888889 0
0.555556 0.888889 0
0.666667 0.888889 0
0.777778 0.888889 0
0.888889 0.888889 0
1 0.888889 0
0 1 0
0.111111 1 0
0.222222 1 0
0.333333 1 0
0.444444 1 0
0.555556 1 0
0.666667 1 0
0.777778 1 0
0.888889 1 0
1 1 0
POINT_DATA 100
SCALARS pressure float 1
LOOKUP_TABLE default
0.116149
0.114271
0.11327
0.11523
0.118876
0.123423
0.126258
0.125829
0.122689
0.120828
0.121194
0.118966
0.11689
0.117222
0.119297
0.122705
0.124937
0.12444
0.12125
0.119274
0.117162
0.11423
0.111944
0.112689
0.114797
0.118548
0.121515
0.12181
0.118326
0.115773
0.118934
0.112892
0.105825
0.103165
0.103555
0.108261
0.114068
0.117348
0.114495
0.111488
0.0833245
0.0785291
0.073067
0.0715223
0.074178
0.0831195
0.0961756
0.107322
0.109526
0.108232
0.0605064
0.0472674
0.0300459
0.0226698
0.024662
0.0394368
0.0640585
0.0886262
0.102492
0.107023
-0.0675798
-0.0560391
-0.0466688
-0.0481741
-0.036187
-0.00905619
0.0306768
0.0704949
0.101963
0.117537
-0.151483
-0.146008
-0.142349
-0.139986
-0.11839
-0.0809192
-0.0303149
0.0208718
0.0734381
0.105368
-0.359665
-0.329372
-0.275687
-0.214123
-0.128519
-0.0332485
0.0754098
0.178808
0.301812
0.382241
-0.635669
-0.537269
-0.382241
-0.247083
-0.090833
0.0631819
0.228316
0.380127
0.562593
0.682087
VECTORS velocity float
0.0003311 0.00293246 0 
-2.98156e-19 0 0 
-4.33681e-19 0 0 
0 0 0 
1.73472e-18 -2.71051e-20 0 
0 -2.1684e-19 0 
-1.73472e-18 0 0 
0 0 0 
-4.06576e-20 0 0 
-0.00171886 -0.00125068 0 
0 0 0 
-0.0185537 0.0157034 0 
-0.0499082 0.0211962 0 
-0.0794618 0.0156071 0 
-0.0934344 0.00297195 0 
-0.0863545 -0.0118165 0 
-0.0602395 -0.0211342 0 
-0.0266861 -0.0184013 0 
-0.0039248 -0.00582744 0 
0 0 0 
0 0 0 
-0.0448966 0.045156 0 
-0.105667 0.0577109 0 
-0.155272 0.0411054 0 
-0.175063 0.00510427 0 
-0.16239 -0.0355579 0 
-0.120992 -0.0621519 0 
-0.0644291 -0.058314 0 
-0.0185643 -0.0268206 0 
0 0 0 
0 0 0 
-0.0638414 0.123643 0 
-0.153122 0.132624 0 
-0.225577 0.0832115 0 
-0.253073 0.00754186 0 
-0.239229 -0.0695188 0 
-0.189334 -0.122695 0 
-0.114659 -0.123791 0 
-0.0427815 -0.0702699 0 
0 0 0 
0 0 0 
-0.111782 0.179365 0 
-0.220873 0.206509 0 
-0.295838 0.130754 0 
-0.321578 0.0117836 0 
-0.30545 -0.106576 0 
-0.25362 -0.193947 0 
-0.171586 -0.211283 0 
-0.0775645 -0.142251 0 
0 0 0 
0 0 0 
-0.117911 0.34648 0 
-0.246065 0.312913 0 
-0.33158 0.176961 0 
-0.350949 0.0102165 0 
-0.331869 -0.145291 0 
-0.283639 -0.266082 0 
-0.210853 -0.310104 0 
-0.111345 -0.245126 0 
0 0 0 
0 0 0 
-0.128396 0.378222 0 
-0.278803 0.40237 0 
-0.347526 0.227682 0 
-0.338389 0.0133837 0 
-0.302651 -0.171188 0 
-0.255889 -0.316427 0 
-0.204424 -0.389927 0 
-0.122179 -0.354642 0 
0 0 0 
0 0 0 
-0.270647 0.63428 0 
-0.339355 0.513359 0 
-0.307045 0.232346 0 
-0.243646 -0.0374953 0 
-0.195505 -0.234732 0 
-0.156359 -0.382053 0 
-0.133856 -0.469518 0 
-0.0855273 -0.476335 0 
0 0 0 
0 0 0 
-0.156734 0.640254 0 
-0.155628 0.414604 0 
-0.102464 0.152456 0 
-0.0589724 -0.051469 0 
-0.0379543 -0.186017 0 
-0.0200807 -0.2818 0 
-0.024191 -0.337716 0 
0.00478783 -0.346838 0 
0 0 0 
0.705155 -0.112564 0 
1 6.93889e-18 0 
1 0 0 
1 0 0 
1 0 0 
1 1.73472e-18 0 
1 0 0 
1 0 0 
1 0 0 
0.691143 0.0673294 0 
