# vtk DataFile Version 2.0

ASCII
DATASET STRUCTURED_GRID
DIMENSIONS 51 51 1
POINTS 2601 float
0 0 0
0.02 0 0
0.04 0 0
0.06 0 0
0.08 0 0
0.1 0 0
0.12 0 0
0.14 0 0
0.16 0 0
0.18 0 0
0.2 0 0
0.22 0 0
0.24 0 0
0.26 0 0
0.28 0 0
0.3 0 0
0.32 0 0
0.34 0 0
0.36 0 0
0.38 0 0
0.4 0 0
0.42 0 0
0.44 0 0
0.46 0 0
0.48 0 0
0.5 0 0
0.52 0 0
0.54 0 0
0.56 0 0
0.58 0 0
0.6 0 0
0.62 0 0
0.64 0 0
0.66 0 0
0.68 0 0
0.7 0 0
0.72 0 0
0.74 0 0
0.76 0 0
0.78 0 0
0.8 0 0
0.82 0 0
0.84 0 0
0.86 0 0
0.88 0 0
0.9 0 0
0.92 0 0
0.94 0 0
0.96 0 0
0.98 0 0
1 0 0
0 0.02 0
0.02 0.02 0
0.04 0.02 0
0.06 0.02 0
0.08 0.02 0
0.1 0.02 0
0.12 0.02 0
0.14 0.02 0
0.16 0.02 0
0.18 0.02 0
0.2 0.02 0
0.22 0.02 0
0.24 0.02 0
0.26 0.02 0
0.28 0.02 0
0.3 0.02 0
0.32 0.02 0
0.34 0.02 0
0.36 0.02 0
0.38 0.02 0
0.4 0.02 0
0.42 0.02 0
0.44 0.02 0
0.46 0.02 0
0.48 0.02 0
0.5 0.02 0
0.52 0.02 0
0.54 0.02 0
0.56 0.02 0
0.58 0.02 0
0.6 0.02 0
0.62 0.02 0
0.64 0.02 0
0.66 0.02 0
0.68 0.02 0
0.7 0.02 0
0.72 0.02 0
0.74 0.02 0
0.76 0.02 0
0.78 0.02 0
0.8 0.02 0
0.82 0.02 0
0.84 0.02 0
0.86 0.02 0
0.88 0.02 0
0.9 0.02 0
0.92 0.02 0
0.94 0.02 0
0.96 0.02 0
0.98 0.02 0
1 0.02 0
0 0.04 0
0.02 0.04 0
0.04 0.04 0
0.06 0.04 0
0.08 0.04 0
0.1 0.04 0
0.12 0.04 0
0.14 0.04 0
0.16 0.04 0
0.18 0.04 0
0.2 0.04 0
0.22 0.04 0
0.24 0.04 0
0.26 0.04 0
0.28 0.04 0
0.3 0.04 0
0.32 0.04 0
0.34 0.04 0
0.36 0.04 0
0.38 0.04 0
0.4 0.04 0
0.42 0.04 0
0.44 0.04 0
0.46 0.04 0
0.48 0.04 0
0.5 0.04 0
0.52 0.04 0
0.54 0.04 0
0.56 0.04 0
0.58 0.04 0
0.6 0.04 0
0.62 0.04 0
0.64 0.04 0
0.66 0.04 0
0.68 0.04 0
0.7 0.04 0
0.72 0.04 0
0.74 0.04 0
0.76 0.04 0
0.78 0.04 0
0.8 0.04 0
0.82 0.04 0
0.84 0.04 0
0.86 0.04 0
0.88 0.04 0
0.9 0.04 0
0.92 0.04 0
0.94 0.04 0
0.96 0.04 0
0.98 0.04 0
1 0.04 0
0 0.06 0
0.02 0.06 0
0.04 0.06 0
0.06 0.06 0
0.08 0.06 0
0.1 0.06 0
0.12 0.06 0
0.14 0.06 0
0.16 0.06 0
0.18 0.06 0
0.2 0.06 0
0.22 0.06 0
0.24 0.06 0
0.26 0.06 0
0.28 0.06 0
0.3 0.06 0
0.32 0.06 0
0.34 0.06 0
0.36 0.06 0
0.38 0.06 0
0.4 0.06 0
0.42 0.06 0
0.44 0.06 0
0.46 0.06 0
0.48 0.06 0
0.5 0.06 0
0.52 0.06 0
0.54 0.06 0
0.56 0.06 0
0.58 0.06 0
0.6 0.06 0
0.62 0.06 0
0.64 0.06 0
0.66 0.06 0
0.68 0.06 0
0.7 0.06 0
0.72 0.06 0
0.74 0.06 0
0.76 0.06 0
0.78 0.06 0
0.8 0.06 0
0.82 0.06 0
0.84 0.06 0
0.86 0.06 0
0.88 0.06 0
0.9 0.06 0
0.92 0.06 0
0.94 0.06 0
0.96 0.06 0
0.98 0.06 0
1 0.06 0
0 0.08 0
0.02 0.08 0
0.04 0.08 0
0.06 0.08 0
0.08 0.08 0
0.1 0.08 0
0.12 0.08 0
0.14 0.08 0
0.16 0.08 0
0.18 0.08 0
0.2 0.08 0
0.22 0.08 0
0.24 0.08 0
0.26 0.08 0
0.28 0.08 0
0.3 0.08 0
0.32 0.08 0
0.34 0.08 0
0.36 0.08 0
0.38 0.08 0
0.4 0.08 0
0.42 0.08 0
0.44 0.08 0
0.46 0.08 0
0.48 0.08 0
0.5 0.08 0
0.52 0.08 0
0.54 0.08 0
0.56 0.08 0
0.58 0.08 0
0.6 0.08 0
0.62 0.08 0
0.64 0.08 0
0.66 0.08 0
0.68 0.08 0
0.7 0.08 0
0.72 0.08 0
0.74 0.08 0
0.76 0.08 0
0.78 0.08 0
0.8 0.08 0
0.82 0.08 0
0.84 0.08 0
0.86 0.08 0
0.88 0.08 0
0.9 0.08 0
0.92 0.08 0
0.94 0.08 0
0.96 0.08 0
0.98 0.08 0
1 0.08 0
0 0.1 0
0.02 0.1 0
0.04 0.1 0
0.06 0.1 0
0.08 0.1 0
0.1 0.1 0
0.12 0.1 0
0.14 0.1 0
0.16 0.1 0
0.18 0.1 0
0.2 0.1 0
0.22 0.1 0
0.24 0.1 0
0.26 0.1 0
0.28 0.1 0
0.3 0.1 0
0.32 0.1 0
0.34 0.1 0
0.36 0.1 0
0.38 0.1 0
0.4 0.1 0
0.42 0.1 0
0.44 0.1 0
0.46 0.1 0
0.48 0.1 0
0.5 0.1 0
0.52 0.1 0
0.54 0.1 0
0.56 0.1 0
0.58 0.1 0
0.6 0.1 0
0.62 0.1 0
0.64 0.1 0
0.66 0.1 0
0.68 0.1 0
0.7 0.1 0
0.72 0.1 0
0.74 0.1 0
0.76 0.1 0
0.78 0.1 0
0.8 0.1 0
0.82 0.1 0
0.84 0.1 0
0.86 0.1 0
0.88 0.1 0
0.9 0.1 0
0.92 0.1 0
0.94 0.1 0
0.96 0.1 0
0.98 0.1 0
1 0.1 0
0 0.12 0
0.02 0.12 0
0.04 0.12 0
0.06 0.12 0
0.08 0.12 0
0.1 0.12 0
0.12 0.12 0
0.14 0.12 0
0.16 0.12 0
0.18 0.12 0
0.2 0.12 0
0.22 0.12 0
0.24 0.12 0
0.26 0.12 0
0.28 0.12 0
0.3 0.12 0
0.32 0.12 0
0.34 0.12 0
0.36 0.12 0
0.38 0.12 0
0.4 0.12 0
0.42 0.12 0
0.44 0.12 0
0.46 0.12 0
0.48 0.12 0
0.5 0.12 0
0.52 0.12 0
0.54 0.12 0
0.56 0.12 0
0.58 0.12 0
0.6 0.12 0
0.62 0.12 0
0.64 0.12 0
0.66 0.12 0
0.68 0.12 0
0.7 0.12 0
0.72 0.12 0
0.74 0.12 0
0.76 0.12 0
0.78 0.12 0
0.8 0.12 0
0.82 0.12 0
0.84 0.12 0
0.86 0.12 0
0.88 0.12 0
0.9 0.12 0
0.92 0.12 0
0.94 0.12 0
0.96 0.12 0
0.98 0.12 0
1 0.12 0
0 0.14 0
0.02 0.14 0
0.04 0.14 0
0.06 0.14 0
0.08 0.14 0
0.1 0.14 0
0.12 0.14 0
0.14 0.14 0
0.16 0.14 0
0.18 0.14 0
0.2 0.14 0
0.22 0.14 0
0.24 0.14 0
0.26 0.14 0
0.28 0.14 0
0.3 0.14 0
0.32 0.14 0
0.34 0.14 0
0.36 0.14 0
0.38 0.14 0
0.4 0.14 0
0.42 0.14 0
0.44 0.14 0
0.46 0.14 0
0.48 0.14 0
0.5 0.14 0
0.52 0.14 0
0.54 0.14 0
0.56 0.14 0
0.58 0.14 0
0.6 0.14 0
0.62 0.14 0
0.64 0.14 0
0.66 0.14 0
0.68 0.14 0
0.7 0.14 0
0.72 0.14 0
0.74 0.14 0
0.76 0.14 0
0.78 0.14 0
0.8 0.14 0
0.82 0.14 0
0.84 0.14 0
0.86 0.14 0
0.88 0.14 0
0.9 0.14 0
0.92 0.14 0
0.94 0.14 0
0.96 0.14 0
0.98 0.14 0
1 0.14 0
0 0.16 0
0.02 0.16 0
0.04 0.16 0
0.06 0.16 0
0.08 0.16 0
0.1 0.16 0
0.12 0.16 0
0.14 0.16 0
0.16 0.16 0
0.18 0.16 0
0.2 0.16 0
0.22 0.16 0
0.24 0.16 0
0.26 0.16 0
0.28 0.16 0
0.3 0.16 0
0.32 0.16 0
0.34 0.16 0
0.36 0.16 0
0.38 0.16 0
0.4 0.16 0
0.42 0.16 0
0.44 0.16 0
0.46 0.16 0
0.48 0.16 0
0.5 0.16 0
0.52 0.16 0
0.54 0.16 0
0.56 0.16 0
0.58 0.16 0
0.6 0.16 0
0.62 0.16 0
0.64 0.16 0
0.66 0.16 0
0.68 0.16 0
0.7 0.16 0
0.72 0.16 0
0.74 0.16 0
0.76 0.16 0
0.78 0.16 0
0.8 0.16 0
0.82 0.16 0
0.84 0.16 0
0.86 0.16 0
0.88 0.16 0
0.9 0.16 0
0.92 0.16 0
0.94 0.16 0
0.96 0.16 0
0.98 0.16 0
1 0.16 0
0 0.18 0
0.02 0.18 0
0.04 0.18 0
0.06 0.18 0
0.08 0.18 0
0.1 0.18 0
0.12 0.18 0
0.14 0.18 0
0.16 0.18 0
0.18 0.18 0
0.2 0.18 0
0.22 0.18 0
0.24 0.18 0
0.26 0.18 0
0.28 0.18 0
0.3 0.18 0
0.32 0.18 0
0.34 0.18 0
0.36 0.18 0
0.38 0.18 0
0.4 0.18 0
0.42 0.18 0
0.44 0.18 0
0.46 0.18 0
0.48 0.18 0
0.5 0.18 0
0.52 0.18 0
0.54 0.18 0
0.56 0.18 0
0.58 0.18 0
0.6 0.18 0
0.62 0.18 0
0.64 0.18 0
0.66 0.18 0
0.68 0.18 0
0.7 0.18 0
0.72 0.18 0
0.74 0.18 0
0.76 0.18 0
0.78 0.18 0
0.8 0.18 0
0.82 0.18 0
0.84 0.18 0
0.86 0.18 0
0.88 0.18 0
0.9 0.18 0
0.92 0.18 0
0.94 0.18 0
0.96 0.18 0
0.98 0.18 0
1 0.18 0
0 0.2 0
0.02 0.2 0
0.04 0.2 0
0.06 0.2 0
0.08 0.2 0
0.1 0.2 0
0.12 0.2 0
0.14 0.2 0
0.16 0.2 0
0.18 0.2 0
0.2 0.2 0
0.22 0.2 0
0.24 0.2 0
0.26 0.2 0
0.28 0.2 0
0.3 0.2 0
0.32 0.2 0
0.34 0.2 0
0.36 0.2 0
0.38 0.2 0
0.4 0.2 0
0.42 0.2 0
0.44 0.2 0
0.46 0.2 0
0.48 0.2 0
0.5 0.2 0
0.52 0.2 0
0.54 0.2 0
0.56 0.2 0
0.58 0.2 0
0.6 0.2 0
0.62 0.2 0
0.64 0.2 0
0.66 0.2 0
0.68 0.2 0
0.7 0.2 0
0.72 0.2 0
0.74 0.2 0
0.76 0.2 0
0.78 0.2 0
0.8 0.2 0
0.82 0.2 0
0.84 0.2 0
0.86 0.2 0
0.88 0.2 0
0.9 0.2 0
0.92 0.2 0
0.94 0.2 0
0.96 0.2 0
0.98 0.2 0
1 0.2 0
0 0.22 0
0.02 0.22 0
0.04 0.22 0
0.06 0.22 0
0.08 0.22 0
0.1 0.22 0
0.12 0.22 0
0.14 0.22 0
0.16 0.22 0
0.18 0.22 0
0.2 0.22 0
0.22 0.22 0
0.24 0.22 0
0.26 0.22 0
0.28 0.22 0
0.3 0.22 0
0.32 0.22 0
0.34 0.22 0
0.36 0.22 0
0.38 0.22 0
0.4 0.22 0
0.42 0.22 0
0.44 0.22 0
0.46 0.22 0
0.48 0.22 0
0.5 0.22 0
0.52 0.22 0
0.54 0.22 0
0.56 0.22 0
0.58 0.22 0
0.6 0.22 0
0.62 0.22 0
0.64 0.22 0
0.66 0.22 0
0.68 0.22 0
0.7 0.22 0
0.72 0.22 0
0.74 0.22 0
0.76 0.22 0
0.78 0.22 0
0.8 0.22 0
0.82 0.22 0
0.84 0.22 0
0.86 0.22 0
0.88 0.22 0
0.9 0.22 0
0.92 0.22 0
0.94 0.22 0
0.96 0.22 0
0.98 0.22 0
1 0.22 0
0 0.24 0
0.02 0.24 0
0.04 0.24 0
0.06 0.24 0
0.08 0.24 0
0.1 0.24 0
0.12 0.24 0
0.14 0.24 0
0.16 0.24 0
0.18 0.24 0
0.2 0.24 0
0.22 0.24 0
0.24 0.24 0
0.26 0.24 0
0.28 0.24 0
0.3 0.24 0
0.32 0.24 0
0.34 0.24 0
0.36 0.24 0
0.38 0.24 0
0.4 0.24 0
0.42 0.24 0
0.44 0.24 0
0.46 0.24 0
0.48 0.24 0
0.5 0.24 0
0.52 0.24 0
0.54 0.24 0
0.56 0.24 0
0.58 0.24 0
0.6 0.24 0
0.62 0.24 0
0.64 0.24 0
0.66 0.24 0
0.68 0.24 0
0.7 0.24 0
0.72 0.24 0
0.74 0.24 0
0.76 0.24 0
0.78 0.24 0
0.8 0.24 0
0.82 0.24 0
0.84 0.24 0
0.86 0.24 0
0.88 0.24 0
0.9 0.24 0
0.92 0.24 0
0.94 0.24 0
0.96 0.24 0
0.98 0.24 0
1 0.24 0
0 0.26 0
0.02 0.26 0
0.04 0.26 0
0.06 0.26 0
0.08 0.26 0
0.1 0.26 0
0.12 0.26 0
0.14 0.26 0
0.16 0.26 0
0.18 0.26 0
0.2 0.26 0
0.22 0.26 0
0.24 0.26 0
0.26 0.26 0
0.28 0.26 0
0.3 0.26 0
0.32 0.26 0
0.34 0.26 0
0.36 0.26 0
0.38 0.26 0
0.4 0.26 0
0.42 0.26 0
0.44 0.26 0
0.46 0.26 0
0.48 0.26 0
0.5 0.26 0
0.52 0.26 0
0.54 0.26 0
0.56 0.26 0
0.58 0.26 0
0.6 0.26 0
0.62 0.26 0
0.64 0.26 0
0.66 0.26 0
0.68 0.26 0
0.7 0.26 0
0.72 0.26 0
0.74 0.26 0
0.76 0.26 0
0.78 0.26 0
0.8 0.26 0
0.82 0.26 0
0.84 0.26 0
0.86 0.26 0
0.88 0.26 0
0.9 0.26 0
0.92 0.26 0
0.94 0.26 0
0.96 0.26 0
0.98 0.26 0
1 0.26 0
0 0.28 0
0.02 0.28 0
0.04 0.28 0
0.06 0.28 0
0.08 0.28 0
0.1 0.28 0
0.12 0.28 0
0.14 0.28 0
0.16 0.28 0
0.18 0.28 0
0.2 0.28 0
0.22 0.28 0
0.24 0.28 0
0.26 0.28 0
0.28 0.28 0
0.3 0.28 0
0.32 0.28 0
0.34 0.28 0
0.36 0.28 0
0.38 0.28 0
0.4 0.28 0
0.42 0.28 0
0.44 0.28 0
0.46 0.28 0
0.48 0.28 0
0.5 0.28 0
0.52 0.28 0
0.54 0.28 0
0.56 0.28 0
0.58 0.28 0
0.6 0.28 0
0.62 0.28 0
0.64 0.28 0
0.66 0.28 0
0.68 0.28 0
0.7 0.28 0
0.72 0.28 0
0.74 0.28 0
0.76 0.28 0
0.78 0.28 0
0.8 0.28 0
0.82 0.28 0
0.84 0.28 0
0.86 0.28 0
0.88 0.28 0
0.9 0.28 0
0.92 0.28 0
0.94 0.28 0
0.96 0.28 0
0.98 0.28 0
1 0.28 0
0 0.3 0
0.02 0.3 0
0.04 0.3 0
0.06 0.3 0
0.08 0.3 0
0.1 0.3 0
0.12 0.3 0
0.14 0.3 0
0.16 0.3 0
0.18 0.3 0
0.2 0.3 0
0.22 0.3 0
0.24 0.3 0
0.26 0.3 0
0.28 0.3 0
0.3 0.3 0
0.32 0.3 0
0.34 0.3 0
0.36 0.3 0
0.38 0.3 0
0.4 0.3 0
0.42 0.3 0
0.44 0.3 0
0.46 0.3 0
0.48 0.3 0
0.5 0.3 0
0.52 0.3 0
0.54 0.3 0
0.56 0.3 0
0.58 0.3 0
0.6 0.3 0
0.62 0.3 0
0.64 0.3 0
0.66 0.3 0
0.68 0.3 0
0.7 0.3 0
0.72 0.3 0
0.74 0.3 0
0.76 0.3 0
0.78 0.3 0
0.8 0.3 0
0.82 0.3 0
0.84 0.3 0
0.86 0.3 0
0.88 0.3 0
0.9 0.3 0
0.92 0.3 0
0.94 0.3 0
0.96 0.3 0
0.98 0.3 0
1 0.3 0
0 0.32 0
0.02 0.32 0
0.04 0.32 0
0.06 0.32 0
0.08 0.32 0
0.1 0.32 0
0.12 0.32 0
0.14 0.32 0
0.16 0.32 0
0.18 0.32 0
0.2 0.32 0
0.22 0.32 0
0.24 0.32 0
0.26 0.32 0
0.28 0.32 0
0.3 0.32 0
0.32 0.32 0
0.34 0.32 0
0.36 0.32 0
0.38 0.32 0
0.4 0.32 0
0.42 0.32 0
0.44 0.32 0
0.46 0.32 0
0.48 0.32 0
0.5 0.32 0
0.52 0.32 0
0.54 0.32 0
0.56 0.32 0
0.58 0.32 0
0.6 0.32 0
0.62 0.32 0
0.64 0.32 0
0.66 0.32 0
0.68 0.32 0
0.7 0.32 0
0.72 0.32 0
0.74 0.32 0
0.76 0.32 0
0.78 0.32 0
0.8 0.32 0
0.82 0.32 0
0.84 0.32 0
0.86 0.32 0
0.88 0.32 0
0.9 0.32 0
0.92 0.32 0
0.94 0.32 0
0.96 0.32 0
0.98 0.32 0
1 0.32 0
0 0.34 0
0.02 0.34 0
0.04 0.34 0
0.06 0.34 0
0.08 0.34 0
[...]
POINT_DATA 2601
SCALARS pressure float 1
LOOKUP_TABLE default
3.92561
3.92748
3.92942
3.93077
3.93088
3.92946
3.92641
3.92181
3.91582
3.90867
3.90063
3.89195
3.88285
3.87352
3.86409
3.85467
3.84531
3.83605
3.82691
3.81788
3.80896
3.80015
3.79144
3.78286
3.77442
3.76614
3.75808
3.75027
3.74276
3.7356
3.72885
3.72253
3.7167
3.71137
3.70657
3.7023
3.69858
3.69539
3.69271
3.69054
3.68887
3.68766
3.68693
3.68665
3.68681
3.6874
3.68834
3.6895
3.69065
3.69149
3.69149
3.92373
3.9256
3.9269
3.92759
3.92717
3.92546
3.92234
3.91785
3.91214
3.90537
3.89777
3.88954
3.88088
3.87195
3.86288
3.85375
3.84464
3.83558
3.82659
3.81769
3.80888
3.80017
3.79157
3.78309
3.77477
3.76664
3.75874
3.7511
3.74377
3.73681
3.73025
3.72413
3.71848
3.71333
3.70868
3.70456
3.70095
3.69785
3.69523
3.6931
3.69142
3.69017
3.68935
3.68893
3.68888
3.68919
3.6898
3.69061
3.69146
3.6923
3.6923
3.92176
3.9243
3.92562
3.92621
3.92564
3.92376
3.92053
3.91599
3.91028
3.90358
3.89609
3.88802
3.87954
3.8708
3.86191
3.85296
3.84401
3.83508
3.82621
3.8174
3.80866
3.80001
3.79147
3.78304
3.77478
3.7667
3.75886
3.75129
3.74405
3.73718
3.73072
3.7247
3.71917
3.71413
3.7096
3.70558
3.70207
3.69905
3.69651
3.69442
3.69276
3.69152
3.69066
3.69016
3.69002
3.69021
3.69069
3.69143
3.69227
3.69346
3.69346
3.9202
3.92345
3.92491
3.92548
3.92475
3.92268
3.91924
3.91453
3.9087
3.90194
3.89446
3.88645
3.87808
3.86949
3.86078
3.852
3.84321
3.83444
3.82569
3.81698
3.80831
3.79972
3.7912
3.7828
3.77455
3.76648
3.75866
3.75112
3.74391
3.73709
3.73069
3.72476
3.71932
3.71438
3.70996
3.70606
3.70266
3.69974
3.69729
3.69528
3.69367
3.69244
3.69158
3.69105
3.69085
3.69096
3.69138
3.69211
3.69303
3.69463
3.69463
3.91955
3.92343
3.92504
3.92559
3.92468
3.92233
3.91858
3.91356
3.90746
3.90051
3.89292
3.88489
3.87658
3.8681
3.85953
3.85093
3.84231
3.83368
3.82506
3.81645
3.80785
3.79928
3.79077
3.78234
3.77405
3.76594
3.75806
3.75048
3.74324
3.73641
3.73002
3.72411
3.71872
3.71386
3.70953
3.70573
3.70245
3.69965
3.69731
3.69539
3.69387
3.6927
3.69187
3.69135
3.69114
3.69124
3.69165
3.69243
3.69347
3.69548
3.69548
3.92006
3.9244
3.92608
3.92653
3.92533
3.92257
3.91836
3.9129
3.90641
3.89917
3.8914
3.88329
3.875
3.86661
3.8582
3.84977
3.84133
3.83288
3.82439
3.81587
3.80732
3.79876
3.79021
3.78171
3.77332
3.7651
3.75711
3.74941
3.74207
3.73516
3.72871
3.72279
3.7174
3.71258
3.70832
3.70461
3.70143
3.69875
3.69654
3.69474
3.69333
3.69226
3.6915
3.69103
3.69085
3.69098
3.69142
3.69227
3.69343
3.69578
3.69578
3.92192
3.92655
3.92817
3.92836
3.92672
3.92341
3.91861
3.91257
3.90559
3.89797
3.88995
3.88173
3.87344
3.86515
3.85689
3.84865
3.8404
3.83212
3.82377
3.81534
3.80682
3.79823
3.78961
3.78099
3.77245
3.76405
3.75587
3.74798
3.74047
3.7334
3.72684
3.72082
3.71539
3.71055
3.70632
3.70268
3.69959
3.69703
3.69495
3.69329
3.69201
3.69107
3.69041
3.69003
3.68992
3.69009
3.69059
3.69151
3.69278
3.69539
3.69539
3.92531
3.93003
3.93144
3.93121
3.92897
3.92495
3.91941
3.91268
3.90512
3.89706
3.88875
3.88039
3.87209
3.86388
3.85577
3.84772
3.83966
3.83155
3.82332
3.81496
3.80645
3.79781
3.78906
3.78028
3.77153
3.76289
3.75445
3.74631
3.73855
3.73126
3.7245
3.71833
3.71278
3.70789
3.70364
3.70002
3.697
3.69454
3.69258
3.69106
3.68992
3.68911
3.68858
3.68831
3.68828
3.68853
3.68908
3.69007
3.69141
3.69419
3.69419
3.93046
3.93507
3.93609
3.93525
3.93224
3.92736
3.92095
3.91344
3.90523
3.89667
3.88805
3.87952
3.87118
3.86305
3.85507
3.84717
3.83928
3.8313
3.82317
3.81485
3.80631
3.79757
3.78867
3.77968
3.77067
3.76174
3.75299
3.74453
3.73647
3.72888
3.72186
3.71547
3.70975
3.70472
3.7004
3.69676
3.69376
3.69136
3.6895
3.6881
3.68709
3.68642
3.68602
3.68586
3.68594
3.68625
3.68686
3.6879
3.68927
3.69213
3.69213
3.93762
3.94189
3.94234
3.9407
3.93675
3.93088
3.92351
3.91514
3.90622
3.89713
3.88814
3.87941
3.87099
3.86287
3.85496
3.84717
3.83938
3.83148
3.82339
3.81505
3.80644
3.79757
3.78848
3.77924
3.76994
3.76069
3.7516
3.74279
3.73437
3.72645
3.71912
3.71244
3.70649
3.70127
3.69681
3.69308
3.69005
3.68766
3.68584
3.68453
3.68362
3.68306
3.68278
3.68273
3.68289
3.68327
3.68392
3.68497
3.68635
3.68919
3.68919
3.94707
3.95073
3.95042
3.94782
3.94279
3.93581
3.92739
3.91809
3.90841
3.89873
3.88932
3.88031
3.87173
3.86352
3.85559
3.84779
3.83999
3.83207
3.82394
3.81551
3.80678
3.79774
3.78843
3.77894
3.76935
3.75976
3.75033
3.74116
3.73238
3.72411
3.71644
3.70945
3.70321
3.69775
3.69309
3.68921
3.68607
3.68363
3.6818
3.6805
3.67965
3.67916
3.67895
3.67897
3.67918
3.6796
3.68026
3.6813
3.68264
3.68539
3.68539
3.9591
3.96183
3.96059
3.95686
3.95063
3.94246
3.93293
3.92264
3.91213
3.90177
3.89182
3.8824
3.8735
3.86505
3.85691
3.84893
3.84097
3.83289
3.82458
3.81598
3.80705
3.7978
3.78826
3.77852
3.76867
3.75882
3.7491
3.73963
3.73054
3.72194
3.71395
3.70664
3.7001
3.69437
3.68947
3.68538
3.68207
3.67949
3.67757
3.67622
3.67534
3.67484
3.67464
3.67466
3.67488
3.67529
3.67592
3.6769
3.67816
3.68077
3.68077
3.97394
3.9754
3.97304
3.96805
3.96054
3.9511
3.94038
3.92901
3.91756
3.9064
3.89575
3.88571
3.87626
3.86731
3.8587
3.85028
3.84191
3.83345
3.8248
3.81588
3.80667
3.79717
3.78741
3.77748
3.76744
3.75743
3.74754
3.7379
3.72862
3.71983
3.71162
3.70409
3.6973
3.69132
3.68614
3.6818
3.67827
3.67548
3.67338
3.67188
3.67087
3.67027
3.66999
3.66994
3.67008
3.67041
3.67095
3.67183
3.67298
3.67538
3.67538
3.99173
3.99153
3.98791
3.98155
3.97267
3.96189
3.9499
3.93735
3.92479
3.9126
3.90097
3.89
3.87964
3.8698
3.86034
3.85112
3.84199
3.83286
3.82361
3.8142
3.8046
3.79481
3.78486
3.77481
3.76475
3.75475
3.74492
3.73536
3.72615
3.7174
3.7092
3.70162
3.69473
3.68859
3.68323
3.67865
3.67486
3.6718
3.66944
3.66768
3.66644
3.66562
3.66513
3.6649
3.66487
3.66503
3.66541
3.66613
3.66711
3.66929
3.66929
4.01247
4.01019
4.00517
3.99735
3.98706
3.97487
3.96147
3.94754
3.93361
3.92005
3.90705
3.89465
3.88286
3.8716
3.86075
3.85021
3.83987
3.82963
3.81946
3.80931
3.79918
3.78905
3.77895
3.76893
3.75905
3.74938
3.73996
3.73086
3.72214
3.71385
3.70605
3.69878
3.69209
3.68603
3.68064
3.67594
3.67193
3.6686
3.66591
3.6638
3.6622
3.66103
3.6602
3.65965
3.65932
3.65921
3.65934
3.65982
3.66061
3.66253
3.66253
4.03592
4.03114
4.02463
4.01528
4.00351
3.98978
3.97478
3.95917
3.9435
3.92804
3.91303
3.89855
3.88463
3.87122
3.85828
3.84574
3.83354
3.82165
3.81008
3.79883
3.78794
3.77738
3.76719
3.75738
3.74801
3.73908
3.73059
3.72255
3.71494
3.70776
3.70099
3.69462
3.68867
3.68315
3.67808
3.6735
3.66943
3.6659
3.66288
3.66035
3.65829
3.65663
3.65531
3.65428
3.65351
3.653
3.65277
3.65294
3.65347
3.65513
3.65513
4.06157
4.05389
4.0458
4.03488
4.02152
4.00605
3.98917
3.97145
3.95336
3.93528
3.91746
3.90003
3.88305
3.86656
3.85057
3.83508
3.82014
3.80583
3.79229
3.77954
3.76763
3.75658
3.74634
3.73695
3.72842
3.7207
3.71375
3.7075
3.70191
3.69681
3.69204
3.68751
3.68315
3.67892
3.67482
3.67086
3.66708
3.66354
3.6603
3.65736
3.65476
3.65249
3.65053
3.64886
3.64748
3.64641
3.64569
3.64546
3.64568
3.64708
3.64708
4.08856
4.07759
4.06788
4.05529
4.04019
4.02276
4.00345
3.98287
3.96158
3.93995
3.91828
3.89675
3.8755
3.85466
3.83448
3.81506
3.79657
3.77921
3.76305
3.74815
3.73474
3.72292
3.71259
3.7038
3.6965
3.69062
3.68602
3.68253
3.67992
3.67791
3.67626
3.67484
3.67337
3.67163
3.66953
3.66704
3.66422
3.66114
3.65793
3.65471
3.65158
3.6486
3.64585
3.64337
3.6412
3.63941
3.63806
3.63731
3.63716
3.63829
3.63829
4.1156
4.101
4.08963
4.07531
4.05829
4.03824
4.01578
3.99151
3.96596
3.9396
3.91272
3.88566
3.85885
3.83265
3.80729
3.78274
3.75934
3.73746
3.71736
3.69936
3.68375
3.67075
3.66022
3.65219
3.64661
3.64333
3.64213
3.64267
3.64447
3.64715
3.65027
3.65343
3.65629
3.65855
3.66001
3.66037
3.65961
3.65784
3.65525
3.65207
3.64854
3.64487
3.64123
3.63777
3.63463
3.63193
3.6298
3.62841
3.6278
3.62865
3.62865
4.14095
4.12247
4.10946
4.09317
4.07361
4.05034
4.02386
3.99478
3.96369
3.93112
3.89762
3.86407
3.8306
3.7972
3.76438
3.73269
3.70268
3.67489
3.64979
3.62778
3.60926
3.59455
3.58359
3.57633
3.5727
3.57254
3.57553
3.58123
3.58908
3.59846
3.60867
3.61885
3.62832
3.63653
3.64323
3.64822
3.65125
3.65219
3.65126
3.64881
3.64526
3.64103
3.63649
3.63194
3.62765
3.62386
3.62076
3.61858
3.61741
3.61794
3.61794
4.16241
4.13987
4.12498
4.10636
4.08377
4.05642
4.02482
3.98959
3.95149
3.91165
3.87066
3.82854
3.78563
3.74282
3.70086
3.66048
3.62241
3.58738
3.55603
3.52896
3.50668
3.48958
3.47786
3.47126
3.46976
3.47313
3.48103
3.49289
3.50802
3.52561
3.54471
3.5643
3.58338
3.60087
3.61571
3.6275
3.63619
3.64185
3.64428
3.64379
3.64102
3.63664
3.63133
3.62566
3.62008
3.615
3.61074
3.60761
3.60575
3.60589
3.60589
4.1772
4.15036
4.13349
4.11217
4.0858
4.05335
4.01535
3.9726
3.92688
3.87839
3.827
3.77377
3.71971
3.66575
3.61289
3.56213
3.51446
3.47083
3.43208
3.39897
3.37212
3.35204
3.3391
3.3329
3.33346
3.34055
3.35378
3.37254
3.39604
3.42327
3.45307
3.48414
3.51511
3.54459
3.57126
3.59387
3.61134
3.62384
3.63178
3.63523
3.63463
3.63097
3.62529
3.6186
3.61166
3.60512
3.59949
3.59521
3.59251
3.59214
3.59214
4.18225
4.15103
4.13198
4.10741
4.0764
4.03773
3.99213
3.94165
3.88635
3.82602
3.76229
3.69629
3.62922
3.56235
3.49699
3.43445
3.37597
3.3227
3.27569
3.23581
3.2038
3.18025
3.16568
3.15957
3.16195
3.17264
3.19124
3.21712
3.24946
3.28716
3.32891
3.37319
3.41828
3.46236
3.50363
3.54042
3.57127
3.59475
3.61083
3.62044
3.62424
3.62281
3.61765
3.61027
3.60205
3.59391
3.5867
3.58104
3.57731
3.57625
3.57625
4.17418
4.13852
4.11702
4.0886
4.05208
4.00622
3.95311
3.89258
3.82451
3.75098
3.67323
3.59274
3.5111
3.42996
3.35098
3.27574
3.20575
3.14233
3.08667
3.03974
3.00233
2.97507
2.95861
2.95233
2.95624
2.9702
2.99384
3.02657
3.06757
3.11578
3.16982
3.22808
3.28862
3.34931
3.40784
3.46189
3.50933
3.54839
3.57765
3.59669
3.60713
3.61034
3.60727
3.60004
3.59071
3.58101
3.57202
3.56473
3.55972
3.55774
3.55774
4.1495
4.10943
4.08525
4.05245
4.00965
3.957
3.89391
3.82022
3.73852
3.65017
3.55692
3.46068
3.36346
3.26731
3.17422
3.08606
3.00452
2.93108
2.86698
2.81325
2.77067
2.73986
2.7215
2.71491
2.72011
2.73693
2.76505
2.80396
2.8529
2.91089
2.97665
3.04856
3.12468
3.2027
3.27998
3.35368
3.4209
3.47897
3.52581
3.55996
3.58082
3.59094
3.59244
3.58687
3.57715
3.56589
3.55503
3.54583
3.53926
3.53605
3.53605
4.10445
4.05999
4.03292
3.99529
3.94717
3.88531
3.80923
3.72205
3.62536
3.52108
3.41142
3.29881
3.18572
3.07457
2.96768
2.86711
2.77471
2.692
2.62026
2.56048
2.51341
2.47959
2.45945
2.45278
2.45919
2.47856
2.51059
2.55484
2.61068
2.67723
2.75338
2.83767
2.92829
3.02297
3.11898
3.21319
3.30214
3.38226
3.45031
3.5038
3.54125
3.56233
3.57071
3.56923
3.56042
3.54805
3.53524
3.52386
3.5154
3.51057
3.51057
4.03584
3.98733
3.95764
3.9166
3.86069
3.78629
3.69734
3.59556
3.48302
3.36223
3.23595
3.10712
2.97865
2.85331
2.73364
2.62187
2.51987
2.4292
2.35106
2.28637
2.23581
2.1998
2.17859
2.17214
2.17986
2.2016
2.23709
2.28594
2.3476
2.42135
2.50625
2.60108
2.70425
2.81375
2.92702
3.04092
3.15173
3.2553
3.34734
3.42393
3.4822
3.52071
3.53992
3.54493
3.53922
3.52671
3.51195
3.49828
3.48756
3.48064
3.48064
3.93935
3.88671
3.85588
3.8095
3.74255
3.6569
3.55483
3.43827
3.30994
3.17296
3.03071
2.88664
2.74406
2.60603
2.47523
2.35396
2.24408
2.14706
2.06402
1.99578
1.94288
1.90565
1.88423
1.87851
1.88784
1.91203
1.95078
2.00373
2.0704
2.15016
2.24226
2.3457
2.45919
2.58105
2.70908
2.84042
2.97149
3.09794
3.21482
3.31701
3.39987
3.46022
3.49684
3.51175
3.51166
3.50078
3.48467
3.46838
3.45512
3.44555
3.44555
3.81333
3.75813
3.72759
3.67204
3.59531
3.49784
3.38198
3.25038
3.1065
2.95409
2.79708
2.63934
2.4845
2.33577
2.19589
2.06711
1.95122
1.84959
1.76322
1.6928
1.63877
1.60135
1.58057
1.57624
1.58764
1.61453
1.6566
1.71347
1.78468
1.86968
1.96782
2.07829
2.20006
2.33181
2.47176
2.61754
2.76598
2.91299
3.0535
3.18165
3.29135
3.37728
3.43616
3.46734
3.47528
3.46868
3.45238
3.43347
3.4174
3.40457
3.40457
3.65125
3.5952
3.55931
3.49479
3.40962
3.30168
3.17385
3.02919
2.87181
2.70609
2.53654
2.36746
2.20271
2.04559
1.89884
1.76462
1.64461
1.54004
1.4518
1.38049
1.32644
1.2898
1.27051
1.26825
1.28228
1.3123
1.35796
1.41886
1.49451
1.5844
1.68792
1.80439
1.93297
2.0726
2.22191
2.37906
2.54146
2.70563
2.86686
3.01924
3.15583
3.26949
3.3543
3.40733
3.42913
3.42848
3.41398
3.39292
3.3736
3.35693
3.35693
3.45696
3.40438
3.36302
3.29265
3.19868
3.07909
2.93828
2.78021
2.60987
2.43218
2.25203
2.07385
1.90155
1.73836
1.58689
1.44917
1.32674
1.22072
1.13192
1.06084
1.00778
0.972795
0.955772
0.956282
0.973543
1.00723
1.05692
1.12217
1.20248
1.2973
1.40603
1.52802
1.66254
1.80873
1.9655
2.13147
2.30465
2.48228
2.66041
2.83364
2.99499
3.13627
3.24926
3.32773
3.36981
3.37862
3.36795
3.34579
3.32299
3.30188
3.30188
3.21725
3.16265
3.11271
3.0364
2.93609
2.80966
2.66142
2.49539
2.31696
2.13152
1.94438
1.76026
1.58315
1.41626
1.26213
1.12267
0.999318
0.893134
0.804863
0.73499
0.683771
0.65125
0.637247
0.641203
0.662346
0.700292
0.754581
0.824704
0.910104
1.01018
1.12431
1.25182
1.39199
1.54407
1.70715
1.88016
2.06161
2.24944
2.44056
2.63049
2.81287
2.97942
3.1205
3.22692
3.29284
3.31813
3.31257
3.29114
3.26513
3.2388
3.2388
2.95025
2.89966
2.85274
2.7742
2.66644
2.52954
2.36983
2.19278
2.00475
1.81154
1.61848
1.43007
1.25004
1.08131
0.92619
0.786435
0.663399
0.558101
0.471285
0.403446
0.354851
0.325537
0.315282
0.32338
0.349092
0.391974
0.451513
0.527135
0.618217
0.724094
0.844068
0.977417
1.1234
1.28125
1.45015
1.6292
1.81727
2.01282
2.21359
2.4161
2.61509
2.80298
2.96982
3.1044
3.19699
3.24343
3.24748
3.228
3.19942
3.16699
3.16699
2.62903
2.56945
2.51214
2.42832
2.31851
2.18157
2.02248
1.8459
1.65798
1.46457
1.27121
1.08263
0.902654
0.734295
0.579862
0.441128
0.319471
0.215958
0.131394
0.0663361
0.0210961
-0.00427379
-0.0100347
0.00293633
0.033956
0.0825166
0.148048
0.229901
0.32738
0.439734
0.566184
0.705927
0.85815
1.02204
1.19678
1.38152
1.57532
1.77701
1.98496
2.19661
2.4079
2.61249
2.80113
2.96186
3.08198
3.15241
3.17276
3.15561
3.12562
3.08653
3.08653
2.29807
2.25246
2.20649
2.12391
2.00792
1.8607
1.6903
1.50356
1.30782
1.10924
0.913153
0.723689
0.544106
0.376902
0.224073
0.0872416
-0.0322337
-0.133227
-0.214838
-0.276414
-0.317573
-0.338237
-0.338708
-0.320073
-0.282931
-0.227864
-0.155509
-0.0665972
0.0380906
0.157711
0.291389
0.438224
0.59731
0.767753
0.948675
1.13921
1.33849
1.54554
1.75912
1.97739
2.19739
2.41418
2.61984
2.80292
2.94917
3.04519
3.08524
3.07393
3.04364
2.99764
2.99764
1.89523
1.82585
1.7615
1.67366
1.56193
1.42469
1.26665
1.09233
0.907778
0.718578
0.529995
0.34641
0.171452
0.0080119
-0.141572
-0.275391
-0.391851
-0.489611
-0.567587
-0.624974
-0.66129
-0.676421
-0.670725
-0.645549
-0.601375
-0.538877
-0.458765
-0.361867
-0.249059
-0.121289
0.0204628
0.175186
0.341872
0.519526
0.707188
0.903933
1.10887
1.32108
1.53955
1.76291
1.98902
2.21422
2.43223
2.63296
2.80208
2.92337
2.985
2.9866
2.95476
2.90149
2.90149
1.51403
1.47971
1.44019
1.35883
1.24122
1.09136
0.918825
0.731341
0.536718
0.341074
0.149431
-0.0345506
-0.208096
-0.369083
-0.515703
-0.646305
-0.759325
-0.853317
-0.927033
-0.979511
-1.01016
-1.01885
-1.006
-0.973291
-0.92106
-0.850084
-0.761167
-0.655246
-0.533306
-0.396411
-0.245661
-0.0821801
0.0929115
0.278519
0.473588
0.677115
0.888146
1.10576
1.32899
1.55674
1.7874
2.01831
2.24471
2.4583
2.64591
2.79018
2.8744
2.89247
2.85997
2.79918
2.79918
1.02828
0.932163
0.861451
0.77493
0.671325
0.545926
0.402239
0.243612
0.0752241
-0.0981788
-0.272042
-0.442475
-0.606024
-0.759656
-0.900645
-1.02655
-1.13521
-1.2247
-1.29343
-1.34019
-1.36425
-1.36544
-1.34432
-1.30295
-1.2415
-1.16085
-1.06195
-0.945845
-0.813654
-0.666572
-0.505829
-0.332671
-0.148327
0.0460111
0.249203
0.46017
0.67789
0.901389
1.1297
1.3618
1.59637
1.83142
2.06336
2.28574
2.48714
2.65063
2.75645
2.79099
2.76232
2.69318
2.69318
0.605117
0.591763
0.569939
0.497725
0.386909
0.242805
0.0765567
-0.103884
-0.290661
-0.477933
-0.660912
-0.836173
-1.0011
-1.15366
-1.29205
-1.41447
-1.51899
-1.60371
-1.66686
-1.70707
-1.72349
-1.716
-1.68535
-1.634
-1.56198
-1.47031
-1.36009
-1.2325
-1.08883
-0.930416
-0.758632
-0.574848
-0.380397
-0.176554
0.0354746
0.254554
0.479614
0.70963
0.9436
1.18049
1.41909
1.65776
1.89374
2.12206
2.33324
2.51193
2.63706
2.68847
2.67
2.58921
2.58921
0.00187912
-0.132425
-0.200619
-0.274135
-0.354718
-0.453301
-0.567914
-0.697064
-0.836773
-0.983395
-1.13323
-1.28293
-1.42918
-1.56865
-1.69789
-1.81347
-1.91215
-1.99102
-2.04764
-2.08022
-2.08773
-2.07009
-2.02846
-1.96565
-1.8815
-1.77726
-1.6542
-1.5137
-1.35722
-1.18626
-1.00236
-0.807011
-0.601632
-0.38756
-0.166034
0.061789
0.294824
0.53203
0.772378
1.01481
1.25812
1.50082
1.7406
1.97354
2.19188
2.38241
2.52408
2.59235
2.58722
2.4925
2.4925
-0.434044
-0.399932
-0.389725
-0.440675
-0.533701
-0.662081
-0.813159
-0.97954
-1.15355
-1.32972
-1.50315
-1.67012
-1.82745
-1.97259
-2.10326
-2.21727
-2.31228
-2.38581
-2.43549
-2.45942
-2.45654
-2.42705
-2.37317
-2.29687
-2.19871
-2.08009
-1.94249
-1.78749
-1.61677
-1.43203
-1.23497
-1.02718
-0.810144
-0.585227
-0.353658
-0.116567
0.124997
0.370025
0.617513
0.866404
1.1155
1.36336
1.60785
1.84575
2.07049
2.2711
2.42717
2.51212
2.51997
2.41463
2.41463
-1.20621
-1.39373
-1.44492
-1.48713
-1.52491
-1.57876
-1.64827
-1.73379
-1.83238
-1.94134
-2.05773
-2.17868
-2.30104
-2.42125
-2.53509
-2.63777
-2.72432
-2.79006
-2.83111
-2.84471
-2.8295
-2.78601
-2.71795
-2.62594
-2.51162
-2.37656
-2.22252
-2.05132
-1.8649
-1.66518
-1.45401
-1.23305
-1.00382
-0.767634
-0.525665
-0.278959
-0.0284727
0.224886
0.480204
0.736507
0.992662
1.24728
1.49837
1.7431
1.9757
2.18724
2.358
2.46158
2.48402
2.37523
2.37523
-1.5848
-1.46798
-1.41636
-1.43193
-1.49411
-1.59477
-1.72067
-1.86592
-2.02309
-2.18717
-2.3529
-2.51573
-2.67109
-2.81478
-2.94287
-3.05194
-3.13872
-3.20006
-3.23294
-3.23505
-3.20546
-3.14544
-3.06034
-2.95025
-2.81737
-2.6636
-2.49106
-2.30188
-2.09837
-1.88263
-1.65662
-1.42204
-1.18033
-0.932733
-0.68028
-0.423874
-0.164314
0.0976618
0.361316
0.625855
0.89033
1.15354
1.4137
1.66838
1.9124
2.13876
2.32833
2.45748
2.50037
2.40354
2.40354
-2.62108
-2.88935
-2.90029
-2.88472
-2.85604
-2.84531
-2.85348
-2.88147
-2.92663
-2.98669
-3.05922
-3.14187
-3.23177
-3.32533
-3.41782
-3.50315
-3.57404
-3.62289
-3.6431
-3.63029
-3.58296
-3.50307
-3.3976
-3.26633
-3.11202
-2.93694
-2.7437
-2.53486
-2.31306
-2.08058
-1.8394
-1.59113
-1.33707
-1.07829
-0.815618
-0.54976
-0.281295
-0.0107283
0.261459
0.534765
0.808573
1.08207
1.35392
1.62231
1.88283
2.13055
2.34711
2.51471
2.5918
2.53084
2.53084
-2.81023
-2.58075
-2.48094
-2.44231
-2.4554
-2.5131
-2.60256
-2.71948
-2.85597
-3.00731
-3.16793
-3.33289
-3.49625
-3.65125
-3.79027
-3.906
-3.99191
-4.04271
-4.05467
-4.02596
-3.95754
-3.85407
-3.72474
-3.56871
-3.38964
-3.19041
-2.97431
-2.74439
-2.50358
-2.25417
-1.998
-1.73647
-1.47063
-1.20129
-0.929035
-0.654313
-0.377448
-0.098666
0.181871
0.464044
0.747714
1.03268
1.31838
1.60406
1.88664
2.16375
2.41848
2.64196
2.7742
2.77535
2.77535
-4.33607
-4.68871
-4.61269
-4.49719
-4.37725
-4.28367
-4.21787
-4.17783
-4.15976
-4.16022
-4.17669
-4.20763
-4.25158
-4.30594
-4.36572
-4.42339
-4.46875
-4.49011
-4.47668
-4.42178
-4.32533
-4.19481
-4.03497
-3.84885
-3.64069
-3.41418
-3.17328
-2.92134
-2.66132
-2.39528
-2.12469
-1.85061
-1.57373
-1.29456
-1.0134
-0.730432
-0.445709
-0.159165
0.129381
0.420241
0.713851
1.01079
1.31163
1.61715
1.92656
2.24104
2.54715
2.84861
3.066
3.18458
3.18458
-4.02382
-3.70981
-3.53198
-3.40549
-3.34029
-3.33821
-3.38289
-3.46851
-3.5841
-3.72369
-3.881
-4.0518
-4.23149
-4.41368
-4.58643
-4.73444
-4.84073
-4.89081
-4.87731
-4.80112
-4.67105
-4.50419
-4.30701
-4.08599
-3.84561
-3.5887
-3.32082
-3.04539
-2.76514
-2.48162
-2.19579
-1.90823
-1.61929
-1.32915
-1.03785
-0.745326
-0.451383
-0.155699
0.14222
0.443092
0.747915
1.05809
1.37545
1.70269
2.04218
2.39993
2.76989
3.17296
3.51837
3.86123
3.86123
-6.5805
-6.85493
-6.60846
-6.34863
-6.1295
-5.95233
-5.81603
-5.71234
-5.63461
-5.57607
-5.53089
-5.49524
-5.46871
-5.45416
-5.45217
-5.45599
-5.44697
-5.40286
-5.30845
-5.15862
-4.97226
-4.75801
-4.51173
-4.24366
-3.96132
-3.66589
-3.36094
-3.05179
-2.74043
-2.42789
-2.11459
-1.8008
-1.48658
-1.17192
-0.856693
-0.540678
-0.223542