# vtk DataFile Version 2.0
t_insac_ib
ASCII
DATASET STRUCTURED_GRID
DIMENSIONS 101 101 1
POINTS 10201 float
0 0 0
0.01 0 0
0.02 0 0
0.03 0 0
0.04 0 0
0.05 0 0
0.06 0 0
0.07 0 0
0.08 0 0
0.09 0 0
0.1 0 0
0.11 0 0
0.12 0 0
0.13 0 0
0.14 0 0
0.15 0 0
0.16 0 0
0.17 0 0
0.18 0 0
0.19 0 0
0.2 0 0
0.21 0 0
0.22 0 0
0.23 0 0
0.24 0 0
0.25 0 0
0.26 0 0
0.27 0 0
0.28 0 0
0.29 0 0
0.3 0 0
0.31 0 0
0.32 0 0
0.33 0 0
0.34 0 0
0.35 0 0
0.36 0 0
0.37 0 0
0.38 0 0
0.39 0 0
0.4 0 0
0.41 0 0
0.42 0 0
0.43 0 0
0.44 0 0
0.45 0 0
0.46 0 0
0.47 0 0
0.48 0 0
0.49 0 0
0.5 0 0
0.51 0 0
0.52 0 0
0.53 0 0
0.54 0 0
0.55 0 0
0.56 0 0
0.57 0 0
0.58 0 0
0.59 0 0
0.6 0 0
0.61 0 0
0.62 0 0
0.63 0 0
0.64 0 0
0.65 0 0
0.66 0 0
0.67 0 0
0.68 0 0
0.69 0 0
0.7 0 0
0.71 0 0
0.72 0 0
0.73 0 0
0.74 0 0
0.75 0 0
0.76 0 0
0.77 0 0
0.78 0 0
0.79 0 0
0.8 0 0
0.81 0 0
0.82 0 0
0.83 0 0
0.84 0 0
0.85 0 0
0.86 0 0
0.87 0 0
0.88 0 0
0.89 0 0
0.9 0 0
0.91 0 0
0.92 0 0
0.93 0 0
0.94 0 0
0.95 0 0
0.96 0 0
0.97 0 0
0.98 0 0
0.99 0 0
1 0 0
0 0.01 0
0.01 0.01 0
0.02 0.01 0
0.03 0.01 0
0.04 0.01 0
0.05 0.01 0
0.06 0.01 0
0.07 0.01 0
0.08 0.01 0
0.09 0.01 0
0.1 0.01 0
0.11 0.01 0
0.12 0.01 0
0.13 0.01 0
0.14 0.01 0
0.15 0.01 0
0.16 0.01 0
0.17 0.01 0
0.18 0.01 0
0.19 0.01 0
0.2 0.01 0
0.21 0.01 0
0.22 0.01 0
0.23 0.01 0
0.24 0.01 0
0.25 0.01 0
0.26 0.01 0
0.27 0.01 0
0.28 0.01 0
0.29 0.01 0
0.3 0.01 0
0.31 0.01 0
0.32 0.01 0
0.33 0.01 0
0.34 0.01 0
0.35 0.01 0
0.36 0.01 0
0.37 0.01 0
0.38 0.01 0
0.39 0.01 0
0.4 0.01 0
0.41 0.01 0
0.42 0.01 0
0.43 0.01 0
0.44 0.01 0
0.45 0.01 0
0.46 0.01 0
0.47 0.01 0
0.48 0.01 0
0.49 0.01 0
0.5 0.01 0
0.51 0.01 0
0.52 0.01 0
0.53 0.01 0
0.54 0.01 0
0.55 0.01 0
0.56 0.01 0
0.57 0.01 0
0.58 0.01 0
0.59 0.01 0
0.6 0.01 0
0.61 0.01 0
0.62 0.01 0
0.63 0.01 0
0.64 0.01 0
0.65 0.01 0
0.66 0.01 0
0.67 0.01 0
0.68 0.01 0
0.69 0.01 0
0.7 0.01 0
0.71 0.01 0
0.72 0.01 0
0.73 0.01 0
0.74 0.01 0
0.75 0.01 0
0.76 0.01 0
0.77 0.01 0
0.78 0.01 0
0.79 0.01 0
0.8 0.01 0
0.81 0.01 0
0.82 0.01 0
0.83 0.01 0
0.84 0.01 0
0.85 0.01 0
0.86 0.01 0
0.87 0.01 0
0.88 0.01 0
0.89 0.01 0
0.9 0.01 0
0.91 0.01 0
0.92 0.01 0
0.93 0.01 0
0.94 0.01 0
0.95 0.01 0
0.96 0.01 0
0.97 0.01 0
0.98 0.01 0
0.99 0.01 0
1 0.01 0
0 0.02 0
0.01 0.02 0
0.02 0.02 0
0.03 0.02 0
0.04 0.02 0
0.05 0.02 0
0.06 0.02 0
0.07 0.02 0
0.08 0.02 0
0.09 0.02 0
0.1 0.02 0
0.11 0.02 0
0.12 0.02 0
0.13 0.02 0
0.14 0.02 0
0.15 0.02 0
0.16 0.02 0
0.17 0.02 0
0.18 0.02 0
0.19 0.02 0
0.2 0.02 0
0.21 0.02 0
0.22 0.02 0
0.23 0.02 0
0.24 0.02 0
0.25 0.02 0
0.26 0.02 0
0.27 0.02 0
0.28 0.02 0
0.29 0.02 0
0.3 0.02 0
0.31 0.02 0
0.32 0.02 0
0.33 0.02 0
0.34 0.02 0
0.35 0.02 0
0.36 0.02 0
0.37 0.02 0
0.38 0.02 0
0.39 0.02 0
0.4 0.02 0
0.41 0.02 0
0.42 0.02 0
0.43 0.02 0
0.44 0.02 0
0.45 0.02 0
0.46 0.02 0
0.47 0.02 0
0.48 0.02 0
0.49 0.02 0
0.5 0.02 0
0.51 0.02 0
0.52 0.02 0
0.53 0.02 0
0.54 0.02 0
0.55 0.02 0
0.56 0.02 0
0.57 0.02 0
0.58 0.02 0
0.59 0.02 0
0.6 0.02 0
0.61 0.02 0
0.62 0.02 0
0.63 0.02 0
0.64 0.02 0
0.65 0.02 0
0.66 0.02 0
0.67 0.02 0
0.68 0.02 0
0.69 0.02 0
0.7 0.02 0
0.71 0.02 0
0.72 0.02 0
0.73 0.02 0
0.74 0.02 0
0.75 0.02 0
0.76 0.02 0
0.77 0.02 0
0.78 0.02 0
0.79 0.02 0
0.8 0.02 0
0.81 0.02 0
0.82 0.02 0
0.83 0.02 0
0.84 0.02 0
0.85 0.02 0
0.86 0.02 0
0.87 0.02 0
0.88 0.02 0
0.89 0.02 0
0.9 0.02 0
0.91 0.02 0
0.92 0.02 0
0.93 0.02 0
0.94 0.02 0
0.95 0.02 0
0.96 0.02 0
0.97 0.02 0
0.98 0.02 0
0.99 0.02 0
1 0.02 0
0 0.03 0
0.01 0.03 0
0.02 0.03 0
0.03 0.03 0
0.04 0.03 0
0.05 0.03 0
0.06 0.03 0
0.07 0.03 0
0.08 0.03 0
0.09 0.03 0
0.1 0.03 0
0.11 0.03 0
0.12 0.03 0
0.13 0.03 0
0.14 0.03 0
0.15 0.03 0
0.16 0.03 0
0.17 0.03 0
0.18 0.03 0
0.19 0.03 0
0.2 0.03 0
0.21 0.03 0
0.22 0.03 0
0.23 0.03 0
0.24 0.03 0
0.25 0.03 0
0.26 0.03 0
0.27 0.03 0
0.28 0.03 0
0.29 0.03 0
0.3 0.03 0
0.31 0.03 0
0.32 0.03 0
0.33 0.03 0
0.34 0.03 0
0.35 0.03 0
0.36 0.03 0
0.37 0.03 0
0.38 0.03 0
0.39 0.03 0
0.4 0.03 0
0.41 0.03 0
0.42 0.03 0
0.43 0.03 0
0.44 0.03 0
0.45 0.03 0
0.46 0.03 0
0.47 0.03 0
0.48 0.03 0
0.49 0.03 0
0.5 0.03 0
0.51 0.03 0
0.52 0.03 0
0.53 0.03 0
0.54 0.03 0
0.55 0.03 0
0.56 0.03 0
0.57 0.03 0
0.58 0.03 0
0.59 0.03 0
0.6 0.03 0
0.61 0.03 0
0.62 0.03 0
0.63 0.03 0
0.64 0.03 0
0.65 0.03 0
0.66 0.03 0
0.67 0.03 0
0.68 0.03 0
0.69 0.03 0
0.7 0.03 0
0.71 0.03 0
0.72 0.03 0
0.73 0.03 0
0.74 0.03 0
0.75 0.03 0
0.76 0.03 0
0.77 0.03 0
0.78 0.03 0
0.79 0.03 0
0.8 0.03 0
0.81 0.03 0
0.82 0.03 0
0.83 0.03 0
0.84 0.03 0
0.85 0.03 0
0.86 0.03 0
0.87 0.03 0
0.88 0.03 0
0.89 0.03 0
0.9 0.03 0
0.91 0.03 0
0.92 0.03 0
0.93 0.03 0
0.94 0.03 0
0.95 0.03 0
0.96 0.03 0
0.97 0.03 0
0.98 0.03 0
0.99 0.03 0
1 0.03 0
0 0.04 0
0.01 0.04 0
0.02 0.04 0
0.03 0.04 0
0.04 0.04 0
0.05 0.04 0
0.06 0.04 0
0.07 0.04 0
0.08 0.04 0
0.09 0.04 0
0.1 0.04 0
0.11 0.04 0
0.12 0.04 0
0.13 0.04 0
0.14 0.04 0
0.15 0.04 0
0.16 0.04 0
0.17 0.04 0
0.18 0.04 0
0.19 0.04 0
0.2 0.04 0
0.21 0.04 0
0.22 0.04 0
0.23 0.04 0
0.24 0.04 0
0.25 0.04 0
0.26 0.04 0
0.27 0.04 0
0.28 0.04 0
0.29 0.04 0
0.3 0.04 0
0.31 0.04 0
0.32 0.04 0
0.33 0.04 0
0.34 0.04 0
0.35 0.04 0
0.36 0.04 0
0.37 0.04 0
0.38 0.04 0
0.39 0.04 0
0.4 0.04 0
0.41 0.04 0
0.42 0.04 0
0.43 0.04 0
0.44 0.04 0
0.45 0.04 0
0.46 0.04 0
0.47 0.04 0
0.48 0.04 0
0.49 0.04 0
0.5 0.04 0
0.51 0.04 0
0.52 0.04 0
0.53 0.04 0
0.54 0.04 0
0.55 0.04 0
0.56 0.04 0
0.57 0.04 0
0.58 0.04 0
0.59 0.04 0
0.6 0.04 0
0.61 0.04 0
0.62 0.04 0
0.63 0.04 0
0.64 0.04 0
0.65 0.04 0
0.66 0.04 0
0.67 0.04 0
0.68 0.04 0
0.69 0.04 0
0.7 0.04 0
0.71 0.04 0
0.72 0.04 0
0.73 0.04 0
0.74 0.04 0
0.75 0.04 0
0.76 0.04 0
0.77 0.04 0
0.78 0.04 0
0.79 0.04 0
0.8 0.04 0
0.81 0.04 0
0.82 0.04 0
0.83 0.04 0
0.84 0.04 0
0.85 0.04 0
0.86 0.04 0
0.87 0.04 0
0.88 0.04 0
0.89 0.04 0
0.9 0.04 0
0.91 0.04 0
0.92 0.04 0
0.93 0.04 0
0.94 0.04 0
0.95 0.04 0
0.96 0.04 0
0.97 0.04 0
0.98 0.04 0
0.99 0.04 0
1 0.04 0
0 0.05 0
0.01 0.05 0
0.02 0.05 0
0.03 0.05 0
0.04 0.05 0
0.05 0.05 0
0.06 0.05 0
0.07 0.05 0
0.08 0.05 0
0.09 0.05 0
0.1 0.05 0
0.11 0.05 0
0.12 0.05 0
0.13 0.05 0
0.14 0.05 0
0.15 0.05 0
0.16 0.05 0
0.17 0.05 0
0.18 0.05 0
0.19 0.05 0
0.2 0.05 0
0.21 0.05 0
0.22 0.05 0
0.23 0.05 0
0.24 0.05 0
0.25 0.05 0
0.26 0.05 0
0.27 0.05 0
0.28 0.05 0
0.29 0.05 0
0.3 0.05 0
0.31 0.05 0
0.32 0.05 0
0.33 0.05 0
0.34 0.05 0
0.35 0.05 0
0.36 0.05 0
0.37 0.05 0
0.38 0.05 0
0.39 0.05 0
0.4 0.05 0
0.41 0.05 0
0.42 0.05 0
0.43 0.05 0
0.44 0.05 0
0.45 0.05 0
0.46 0.05 0
0.47 0.05 0
0.48 0.05 0
0.49 0.05 0
0.5 0.05 0
0.51 0.05 0
0.52 0.05 0
0.53 0.05 0
0.54 0.05 0
0.55 0.05 0
0.56 0.05 0
0.57 0.05 0
0.58 0.05 0
0.59 0.05 0
0.6 0.05 0
0.61 0.05 0
0.62 0.05 0
0.63 0.05 0
0.64 0.05 0
0.65 0.05 0
0.66 0.05 0
0.67 0.05 0
0.68 0.05 0
0.69 0.05 0
0.7 0.05 0
0.71 0.05 0
0.72 0.05 0
0.73 0.05 0
0.74 0.05 0
0.75 0.05 0
0.76 0.05 0
0.77 0.05 0
0.78 0.05 0
0.79 0.05 0
0.8 0.05 0
0.81 0.05 0
0.82 0.05 0
0.83 0.05 0
0.84 0.05 0
0.85 0.05 0
0.86 0.05 0
0.87 0.05 0
0.88 0.05 0
0.89 0.05 0
0.9 0.05 0
0.91 0.05 0
0.92 0.05 0
0.93 0.05 0
0.94 0.05 0
0.95 0.05 0
0.96 0.05 0
0.97 0.05 0
0.98 0.05 0
0.99 0.05 0
1 0.05 0
0 0.06 0
0.01 0.06 0
0.02 0.06 0
0.03 0.06 0
0.04 0.06 0
0.05 0.06 0
0.06 0.06 0
0.07 0.06 0
0.08 0.06 0
0.09 0.06 0
0.1 0.06 0
0.11 0.06 0
0.12 0.06 0
0.13 0.06 0
0.14 0.06 0
0.15 0.06 0
0.16 0.06 0
0.17 0.06 0
0.18 0.06 0
0.19 0.06 0
0.2 0.06 0
0.21 0.06 0
0.22 0.06 0
0.23 0.06 0
0.24 0.06 0
0.25 0.06 0
0.26 0.06 0
0.27 0.06 0
0.28 0.06 0
0.29 0.06 0
0.3 0.06 0
0.31 0.06 0
0.32 0.06 0
0.33 0.06 0
0.34 0.06 0
0.35 0.06 0
0.36 0.06 0
0.37 0.06 0
0.38 0.06 0
0.39 0.06 0
0.4 0.06 0
0.41 0.06 0
0.42 0.06 0
0.43 0.06 0
0.44 0.06 0
0.45 0.06 0
0.46 0.06 0
0.47 0.06 0
0.48 0.06 0
0.49 0.06 0
0.5 0.06 0
0.51 0.06 0
0.52 0.06 0
0.53 0.06 0
0.54 0.06 0
0.55 0.06 0
0.56 0.06 0
0.57 0.06 0
0.58 0.06 0
0.59 0.06 0
0.6 0.06 0
0.61 0.06 0
0.62 0.06 0
0.63 0.06 0
0.64 0.06 0
0.65 0.06 0
0.66 0.06 0
0.67 0.06 0
0.68 0.06 0
0.69 0.06 0
0.7 0.06 0
0.71 0.06 0
0.72 0.06 0
0.73 0.06 0
0.74 0.06 0
0.75 0.06 0
0.76 0.06 0
0.77 0.06 0
0.78 0.06 0
0.79 0.06 0
0.8 0.06 0
0.81 0.06 0
0.82 0.06 0
0.83 0.06 0
0.84 0.06 0
0.85 0.06 0
0.86 0.06 0
0.87 0.06 0
0.88 0.06 0
0.89 0.06 0
0.9 0.06 0
0.91 0.06 0
0.92 0.06 0
0.93 0.06 0
0.94 0.06 0
0.95 0.06 0
0.96 0.06 0
0.97 0.06 0
0.98 0.06 0
0.99 0.06 0
1 0.06 0
0 0.07 0
0.01 0.07 0
0.02 0.07 0
0.03 0.07 0
0.04 0.07 0
0.05 0.07 0
0.06 0.07 0
0.07 0.07 0
0.08 0.07 0
0.09 0.07 0
0.1 0.07 0
0.11 0.07 0
0.12 0.07 0
0.13 0.07 0
0.14 0.07 0
0.15 0.07 0
0.16 0.07 0
0.17 0.07 0
0.18 0.07 0
0.19 0.07 0
0.2 0.07 0
0.21 0.07 0
0.22 0.07 0
0.23 0.07 0
0.24 0.07 0
0.25 0.07 0
0.26 0.07 0
0.27 0.07 0
0.28 0.07 0
0.29 0.07 0
0.3 0.07 0
0.31 0.07 0
0.32 0.07 0
0.33 0.07 0
0.34 0.07 0
0.35 0.07 0
0.36 0.07 0
0.37 0.07 0
0.38 0.07 0
0.39 0.07 0
0.4 0.07 0
0.41 0.07 0
0.42 0.07 0
0.43 0.07 0
0.44 0.07 0
0.45 0.07 0
0.46 0.07 0
0.47 0.07 0
0.48 0.07 0
0.49 0.07 0
0.5 0.07 0
0.51 0.07 0
0.52 0.07 0
0.53 0.07 0
0.54 0.07 0
0.55 0.07 0
0.56 0.07 0
0.57 0.07 0
0.58 0.07 0
0.59 0.07 0
0.6 0.07 0
0.61 0.07 0
0.62 0.07 0
0.63 0.07 0
0.64 0.07 0
0.65 0.07 0
0.66 0.07 0
0.67 0.07 0
0.68 0.07 0
0.69 0.07 0
0.7 0.07 0
0.71 0.07 0
0.72 0.07 0
0.73 0.07 0
0.74 0.07 0
0.75 0.07 0
0.76 0.07 0
0.77 0.07 0
0.78 0.07 0
0.79 0.07 0
0.8 0.07 0
0.81 0.07 0
0.82 0.07 0
0.83 0.07 0
0.84 0.07 0
0.85 0.07 0
0.86 0.07 0
0.87 0.07 0
0.88 0.07 0
0.89 0.07 0
0.9 0.07 0
0.91 0.07 0
0.92 0.07 0
0.93 0.07 0
0.94 0.07 0
0.95 0.07 0
0.96 0.07 0
0.97 0.07 0
0.98 0.07 0
0.99 0.07 0
1 0.07 0
0 0.08 0
0.01 0.08 0
0.02 0.08 0
0.03 0.08 0
0.04 0.08 0
0.05 0.08 0
0.06 0.08 0
0.07 0.08 0
0.08 0.08 0
0.09 0.08 0
0.1 0.08 0
0.11 0.08 0
0.12 0.08 0
0.13 0.08 0
0.14 0.08 0
0.15 0.08 0
0.16 0.08 0
0.17 0.08 0
0.18 0.08 0
0.19 0.08 0
0.2 0.08 0
0.21 0.08 0
0.22 0.08 0
0.23 0.08 0
0.24 0.08 0
0.25 0.08 0
0.26 0.08 0
0.27 0.08 0
0.28 0.08 0
0.29 0.08 0
0.3 0.08 0
0.31 0.08 0
0.32 0.08 0
0.33 0.08 0
0.34 0.08 0
0.35 0.08 0
0.36 0.08 0
0.37 0.08 0
0.38 0.08 0
0.39 0.08 0
0.4 0.08 0
0.41 0.08 0
0.42 0.08 0
0.43 0.08 0
0.44 0.08 0
0.45 0.08 0
0.46 0.08 0
0.47 0.08 0
0.48 0.08 0
0.49 0.08 0
0.5 0.08 0
0.51 0.08 0
[...]
POINT_DATA 10201
SCALARS pressure float 1
LOOKUP_TABLE default
-0.0647576
-0.0648101
-0.0649025
-0.0649561
-0.0649521
-0.0648843
-0.0647522
-0.0645579
-0.064304
-0.0639928
-0.0636268
-0.0632077
-0.0627377
-0.0622184
-0.0616518
-0.0610395
-0.0603835
-0.0596857
-0.0589479
-0.0581723
-0.0573607
-0.0565153
-0.0556381
-0.0547313
-0.053797
-0.0528372
-0.0518542
-0.0508501
-0.0498268
-0.0487865
-0.0477312
-0.0466628
-0.0455833
-0.0444946
-0.0433985
-0.0422967
-0.0411909
-0.0400829
-0.0389741
-0.0378661
-0.0367603
-0.0356582
-0.0345611
-0.0334702
-0.0323868
-0.031312
-0.0302469
-0.0291926
-0.0281501
-0.0271203
-0.0261041
-0.0251025
-0.0241162
-0.0231459
-0.0221925
-0.0212567
-0.020339
-0.0194401
-0.0185606
-0.0177011
-0.0168621
-0.016044
-0.0152474
-0.0144726
-0.01372
-0.0129901
-0.0122831
-0.0115994
-0.0109393
-0.0103031
-0.00969092
-0.00910313
-0.0085399
-0.00800144
-0.00748794
-0.00699958
-0.00653652
-0.00609891
-0.0056869
-0.00530063
-0.00494021
-0.00460577
-0.00429743
-0.0040153
-0.00375949
-0.00353012
-0.00332733
-0.00315128
-0.00300217
-0.00288024
-0.00278576
-0.00271902
-0.00268015
-0.00266904
-0.00268499
-0.00272657
-0.00279143
-0.00287605
-0.00297464
-0.00307575
-0.00312501
-0.0647712
-0.0648154
-0.0648904
-0.0649277
-0.0649117
-0.0648359
-0.064699
-0.064502
-0.0642465
-0.0639346
-0.0635681
-0.063149
-0.0626789
-0.0621598
-0.0615933
-0.0609812
-0.0603254
-0.0596278
-0.0588903
-0.0581149
-0.0573036
-0.0564585
-0.0555816
-0.0546751
-0.0537411
-0.0527818
-0.0517991
-0.0507953
-0.0497724
-0.0487325
-0.0476776
-0.0466097
-0.0455306
-0.0444424
-0.0433467
-0.0422455
-0.0411403
-0.0400328
-0.0389247
-0.0378174
-0.0367123
-0.035611
-0.0345147
-0.0334247
-0.0323422
-0.0312684
-0.0302043
-0.0291511
-0.0281097
-0.0270811
-0.0260663
-0.0250659
-0.024081
-0.0231122
-0.0221602
-0.0212259
-0.0203097
-0.0194125
-0.0185346
-0.0176768
-0.0168394
-0.016023
-0.0152281
-0.014455
-0.0137041
-0.0129759
-0.0122706
-0.0115886
-0.0109301
-0.0102955
-0.00968495
-0.00909872
-0.00853702
-0.00800005
-0.007488
-0.00700104
-0.00653934
-0.00610303
-0.00569226
-0.00530718
-0.00494788
-0.00461451
-0.00430717
-0.00402597
-0.00377102
-0.00354243
-0.00334033
-0.00316486
-0.00301619
-0.00289449
-0.00279996
-0.00273276
-0.0026929
-0.00268011
-0.0026936
-0.00273189
-0.00279262
-0.00287225
-0.00296526
-0.00306211
-0.00310998
-0.0647589
-0.0647909
-0.0648395
-0.0648511
-0.0648151
-0.0647254
-0.0645794
-0.0643766
-0.0641175
-0.0638033
-0.0634354
-0.0630153
-0.0625445
-0.0620248
-0.0614579
-0.0608455
-0.0601893
-0.0594914
-0.0587536
-0.057978
-0.0571664
-0.0563211
-0.055444
-0.0545374
-0.0536032
-0.0526438
-0.0516611
-0.0506573
-0.0496344
-0.0485946
-0.0475399
-0.0464722
-0.0453935
-0.0443057
-0.0432105
-0.0421099
-0.0410054
-0.0398987
-0.0387915
-0.0376852
-0.0365814
-0.0354813
-0.0343865
-0.033298
-0.0322173
-0.0311453
-0.0300833
-0.0290322
-0.0279932
-0.026967
-0.0259547
-0.0249571
-0.023975
-0.0230092
-0.0220603
-0.0211292
-0.0202164
-0.0193225
-0.0184481
-0.0175938
-0.01676
-0.0159473
-0.015156
-0.0143866
-0.0136395
-0.0129149
-0.0122133
-0.011535
-0.0108802
-0.0102491
-0.00964215
-0.0090594
-0.0085011
-0.00796746
-0.00745865
-0.00697483
-0.00651615
-0.00608277
-0.00567481
-0.00529241
-0.00493567
-0.00460471
-0.00429965
-0.00402057
-0.00376758
-0.00354078
-0.00334027
-0.00316615
-0.00301851
-0.00289746
-0.00280303
-0.00273521
-0.00269379
-0.00267832
-0.00268791
-0.00272107
-0.00277561
-0.00284836
-0.00293471
-0.00302882
-0.00307703
-0.0646722
-0.0646997
-0.0647367
-0.0647341
-0.0646851
-0.064585
-0.0644311
-0.0642224
-0.0639589
-0.0636413
-0.0632707
-0.0628482
-0.0623754
-0.0618537
-0.0612849
-0.0606706
-0.0600126
-0.0593129
-0.0585732
-0.0577957
-0.0569823
-0.0561352
-0.0552564
-0.054348
-0.0534122
-0.0524511
-0.0514669
-0.0504616
-0.0494374
-0.0483964
-0.0473406
-0.046272
-0.0451924
-0.0441039
-0.0430083
-0.0419073
-0.0408027
-0.0396961
-0.0385892
-0.0374833
-0.0363802
-0.035281
-0.0341872
-0.0331001
-0.0320208
-0.0309505
-0.0298904
-0.0288415
-0.0278048
-0.0267812
-0.0257716
-0.0247769
-0.0237979
-0.0228354
-0.0218899
-0.0209624
-0.0200532
-0.0191632
-0.0182928
-0.0174425
-0.0166129
-0.0158044
-0.0150174
-0.0142523
-0.0135095
-0.0127894
-0.0120922
-0.0114182
-0.0107677
-0.010141
-0.00953828
-0.00895973
-0.00840556
-0.00787595
-0.00737108
-0.0068911
-0.00643615
-0.00600637
-0.00560187
-0.00522279
-0.00486922
-0.00454128
-0.00423906
-0.00396265
-0.00371213
-0.00348759
-0.00328911
-0.00311674
-0.00297054
-0.00285052
-0.00275666
-0.00268883
-0.00264673
-0.00262986
-0.00263737
-0.00266799
-0.00271995
-0.00279087
-0.00287762
-0.00297762
-0.00303072
-0.0645225
-0.0645506
-0.0645855
-0.0645763
-0.0645196
-0.0644119
-0.0642514
-0.0640371
-0.0637689
-0.0634472
-0.0630728
-0.0626469
-0.0621707
-0.0616458
-0.0610737
-0.0604561
-0.0597948
-0.0590917
-0.0583486
-0.0575677
-0.0567509
-0.0559004
-0.0550182
-0.0541065
-0.0531675
-0.0522033
-0.0512161
-0.0502079
-0.0491811
-0.0481375
-0.0470793
-0.0460085
-0.0449271
-0.0438369
-0.0427398
-0.0416376
-0.040532
-0.0394248
-0.0383174
-0.0372115
-0.0361084
-0.0350097
-0.0339167
-0.0328305
-0.0317526
-0.0306839
-0.0296257
-0.0285789
-0.0275446
-0.0265236
-0.025517
-0.0245254
-0.0235498
-0.0225908
-0.0216492
-0.0207256
-0.0198206
-0.0189349
-0.018069
-0.0172233
-0.0163985
-0.0155948
-0.0148127
-0.0140526
-0.0133149
-0.0125998
-0.0119077
-0.0112389
-0.0105935
-0.00997182
-0.00937409
-0.00880048
-0.00825119
-0.00772637
-0.00722618
-0.00675076
-0.00630025
-0.00587476
-0.00547442
-0.00509932
-0.00474957
-0.00442526
-0.00412647
-0.00385329
-0.00360578
-0.00338402
-0.00318804
-0.00301789
-0.00287359
-0.0027551
-0.00266234
-0.00259515
-0.00255323
-0.00253609
-0.00254303
-0.00257307
-0.00262495
-0.00269714
-0.00278792
-0.00289727
-0.00295681
-0.0643235
-0.0643543
-0.0643915
-0.06438
-0.0643188
-0.0642058
-0.0640399
-0.0638204
-0.0635472
-0.0632208
-0.0628418
-0.0624114
-0.0619307
-0.0614012
-0.0608245
-0.0602022
-0.0595361
-0.0588281
-0.0580802
-0.0572943
-0.0564725
-0.055617
-0.0547299
-0.0538133
-0.0528695
-0.0519007
-0.0509089
-0.0498965
-0.0488655
-0.047818
-0.0467562
-0.0456821
-0.0445975
-0.0435046
-0.042405
-0.0413007
-0.0401934
-0.0390847
-0.0379763
-0.0368697
-0.0357663
-0.0346676
-0.033575
-0.0324896
-0.0314127
-0.0303455
-0.0292891
-0.0282444
-0.0272126
-0.0261944
-0.0251908
-0.0242026
-0.0232306
-0.0222756
-0.0213381
-0.0204189
-0.0195186
-0.0186377
-0.0177768
-0.0169363
-0.0161168
-0.0153186
-0.0145421
-0.0137877
-0.0130557
-0.0123464
-0.0116602
-0.0109971
-0.0103576
-0.00974175
-0.00914979
-0.0085819
-0.00803823
-0.00751895
-0.00702418
-0.00655406
-0.00610871
-0.00568822
-0.00529271
-0.00492227
-0.00457698
-0.00425692
-0.00396217
-0.00369279
-0.00344885
-0.00323038
-0.00303742
-0.00287
-0.00272808
-0.00261164
-0.00252056
-0.00245468
-0.00241371
-0.00239727
-0.00240481
-0.00243565
-0.00248899
-0.00256403
-0.00266005
-0.00277874
-0.00284425
-0.0640854
-0.0641192
-0.06416
-0.0641481
-0.0640842
-0.0639673
-0.0637968
-0.0635724
-0.0632941
-0.0629624
-0.0625781
-0.0621421
-0.0616559
-0.0611206
-0.0605379
-0.0599095
-0.0592372
-0.0585228
-0.0577684
-0.0569759
-0.0561476
-0.0552855
-0.0543918
-0.0534687
-0.0525186
-0.0515435
-0.0505458
-0.0495275
-0.048491
-0.0474383
-0.0463715
-0.0452928
-0.044204
-0.0431072
-0.0420043
-0.040897
-0.039787
-0.0386762
-0.037566
-0.0364581
-0.0353539
-0.0342549
-0.0331622
-0.0320773
-0.0310014
-0.0299355
-0.0288808
-0.0278382
-0.0268089
-0.0257936
-0.0247933
-0.0238087
-0.0228406
-0.0218898
-0.0209569
-0.0200426
-0.0191473
-0.0182718
-0.0174164
-0.0165817
-0.0157681
-0.014976
-0.0142058
-0.0134577
-0.0127322
-0.0120294
-0.0113497
-0.0106933
-0.0100604
-0.00945108
-0.00886565
-0.00830423
-0.00776696
-0.00725397
-0.00676538
-0.0063013
-0.00586182
-0.00544705
-0.00505706
-0.00469194
-0.00435177
-0.00403659
-0.00374649
-0.0034815
-0.00324168
-0.00302705
-0.00283764
-0.00267344
-0.00253444
-0.00242056
-0.00233173
-0.00226776
-0.00222845
-0.00221348
-0.00222247
-0.00225499
-0.0023106
-0.00238898
-0.00249005
-0.00261638
-0.00268648
-0.0638147
-0.0638511
-0.0638952
-0.0638835
-0.0638178
-0.0636977
-0.063523
-0.0632936
-0.0630099
-0.0626725
-0.0622821
-0.0618398
-0.0613467
-0.0608045
-0.0602145
-0.0595786
-0.0588985
-0.0581762
-0.0574137
-0.0566131
-0.0557765
-0.0549062
-0.0540043
-0.0530732
-0.052115
-0.0511322
-0.0501268
-0.0491013
-0.0480578
-0.0469985
-0.0459255
-0.0448409
-0.0437468
-0.042645
-0.0415376
-0.0404264
-0.039313
-0.0381992
-0.0370867
-0.0359769
-0.0348714
-0.0337715
-0.0326785
-0.0315938
-0.0305185
-0.0294539
-0.0284008
-0.0273604
-0.0263336
-0.0253214
-0.0243245
-0.0233437
-0.0223799
-0.0214337
-0.0205057
-0.0195966
-0.0187069
-0.0178372
-0.016988
-0.0161596
-0.0153526
-0.0145672
-0.0138039
-0.0130629
-0.0123445
-0.011649
-0.0109767
-0.0103276
-0.00970199
-0.00910007
-0.00852195
-0.00796778
-0.00743768
-0.00693174
-0.00645008
-0.00599278
-0.00555991
-0.00515156
-0.0047678
-0.00440869
-0.00407428
-0.00376462
-0.00347978
-0.00321977
-0.00298464
-0.0027744
-0.00258906
-0.00242861
-0.00229303
-0.00218225
-0.00209619
-0.0020347
-0.00199762
-0.00198472
-0.00199576
-0.00203047
-0.00208867
-0.00217031
-0.00227562
-0.00240744
-0.00248066
-0.0635155
-0.0635537
-0.0636002
-0.0635888
-0.0635216
-0.0633985
-0.0632196
-0.0629852
-0.0626958
-0.062352
-0.0619548
-0.0615051
-0.0610042
-0.0604537
-0.0598552
-0.0592103
-0.058521
-0.0577892
-0.057017
-0.0562065
-0.0553601
-0.0544798
-0.053568
-0.0526271
-0.0516593
-0.050667
-0.0496526
-0.0486182
-0.0475663
-0.0464989
-0.0454183
-0.0443266
-0.0432259
-0.0421181
-0.0410053
-0.0398891
-0.0387714
-0.037654
-0.0365384
-0.0354261
-0.0343187
-0.0332176
-0.032124
-0.0310392
-0.0299644
-0.0289008
-0.0278493
-0.0268111
-0.025787
-0.0247778
-0.0237846
-0.0228079
-0.0218486
-0.0209073
-0.0199847
-0.0190813
-0.0181976
-0.0173343
-0.0164917
-0.0156703
-0.0148704
-0.0140925
-0.0133367
-0.0126035
-0.011893
-0.0112055
-0.0105412
-0.00990025
-0.0092828
-0.00868901
-0.008119
-0.00757286
-0.00705069
-0.00655259
-0.00607861
-0.00562884
-0.00520332
-0.00480212
-0.00442528
-0.00407285
-0.00374487
-0.00344137
-0.00316239
-0.00290796
-0.00267809
-0.00247279
-0.00229206
-0.00213588
-0.00200423
-0.00189705
-0.00181425
-0.00175575
-0.00172139
-0.00171103
-0.00172451
-0.00176171
-0.00182255
-0.00190713
-0.00201575
-0.00215123
-0.00222634
-0.06319
-0.0632295
-0.0632778
-0.0632664
-0.0631975
-0.0630713
-0.0628882
-0.0626486
-0.062353
-0.0620022
-0.0615972
-0.0611391
-0.0606294
-0.0600693
-0.0594608
-0.0588055
-0.0581054
-0.0573625
-0.056579
-0.055757
-0.0548989
-0.054007
-0.0530836
-0.0521311
-0.051152
-0.0501487
-0.0491234
-0.0480787
-0.0470167
-0.0459399
-0.0448503
-0.0437502
-0.0426417
-0.0415268
-0.0404073
-0.0392853
-0.0381625
-0.0370406
-0.0359212
-0.0348059
-0.0336961
-0.0325933
-0.0314987
-0.0304136
-0.0293391
-0.0282764
-0.0272265
-0.0261904
-0.025169
-0.0241632
-0.0231737
-0.0222014
-0.0212469
-0.0203109
-0.019394
-0.0184967
-0.0176196
-0.0167631
-0.0159278
-0.0151139
-0.0143219
-0.013552
-0.0128045
-0.0120797
-0.0113779
-0.0106991
-0.0100437
-0.00941162
-0.0088031
-0.00821823
-0.00765711
-0.00711979
-0.00660636
-0.00611686
-0.00565134
-0.00520985
-0.00479243
-0.00439909
-0.00402988
-0.00368481
-0.00336392
-0.00306722
-0.00279473
-0.00254646
-0.00232242
-0.00212261
-0.00194702
-0.00179562
-0.0016684
-0.00156529
-0.00148623
-0.00143114
-0.00139993
-0.00139248
-0.00140871
-0.00144854
-0.00151198
-0.00159915
-0.0017103
-0.0018481
-0.00192428
-0.0628401
-0.0628806
-0.0629301
-0.0629184
-0.0628477
-0.0627183
-0.0625307
-0.0622853
-0.061983
-0.0616245
-0.0612109
-0.0607434
-0.0602234
-0.0596526
-0.0590327
-0.0583654
-0.0576529
-0.0568973
-0.0561007
-0.0552654
-0.0543939
-0.0534885
-0.0525517
-0.0515859
-0.0505937
-0.0495775
-0.0485398
-0.047483
-0.0464096
-0.0453217
-0.0442218
-0.0431119
-0.0419944
-0.0408711
-0.0397441
-0.0386153
-0.0374865
-0.0363593
-0.0352355
-0.0341165
-0.0330038
-0.0318988
-0.0308029
-0.0297171
-0.0286428
-0.0275809
-0.0265325
-0.0254986
-0.02448
-0.0234775
-0.0224921
-0.0215243
-0.020575
-0.0196446
-0.0187338
-0.0178431
-0.016973
-0.016124
-0.0152964
-0.0144907
-0.0137071
-0.012946
-0.0122075
-0.0114919
-0.0107995
-0.0101302
-0.00948438
-0.00886201
-0.00826322
-0.00768808
-0.00713665
-0.00660896
-0.00610505
-0.00562494
-0.00516866
-0.00473622
-0.00432762
-0.00394288
-0.003582
-0.00324499
-0.00293185
-0.00264259
-0.0023772
-0.00213569
-0.00191804
-0.00172427
-0.00155433
-0.00140822
-0.0012859
-0.00118732
-0.00111244
-0.00106118
-0.00103347
-0.00102924
-0.00104843
-0.00109101
-0.00115699
-0.00124647
-0.00135962
-0.00149889
-0.00157566
-0.0624675
-0.0625089
-0.0625593
-0.062547
-0.0624743
-0.0623414
-0.0621488
-0.0618973
-0.0615875
-0.0612205
-0.0607973
-0.0603193
-0.059788
-0.059205
-0.0585721
-0.0578914
-0.0571648
-0.0563946
-0.0555832
-0.0547328
-0.053846
-0.0529253
-0.0519732
-0.0509922
-0.0499851
-0.0489543
-0.0479024
-0.0468319
-0.0457452
-0.0446448
-0.043533
-0.0424121
-0.0412842
-0.0401514
-0.0390158
-0.0378791
-0.0367434
-0.0356102
-0.0344812
-0.0333579
-0.0322419
-0.0311343
-0.0300367
-0.02895
-0.0278756
-0.0268144
-0.0257675
-0.0247357
-0.02372
-0.0227212
-0.0217399
-0.020777
-0.019833
-0.0189087
-0.0180044
-0.0171208
-0.0162582
-0.0154172
-0.014598
-0.013801
-0.0130265
-0.0122748
-0.011546
-0.0108404
-0.010158
-0.00949911
-0.00886367
-0.0082518
-0.00766355
-0.00709894
-0.00655801
-0.00604076
-0.00554718
-0.00507726
-0.004631
-0.00420837
-0.00380935
-0.00343394
-0.0030821
-0.00275383
-0.0024491
-0.00216791
-0.00191024
-0.00167607
-0.00146539
-0.00127818
-0.00111442
-0.000974078
-0.000857124
-0.000763517
-0.000693209
-0.000646148
-0.000622276
-0.000621539
-0.000643893
-0.000689311
-0.000757804
-0.00084943
-0.000964252
-0.00110456
-0.00118165
-0.0620744
-0.0621166
-0.0621678
-0.0621547
-0.0620796
-0.0619429
-0.0617449
-0.0614866
-0.0611687
-0.0607922
-0.0603584
-0.0598687
-0.0593247
-0.0587281
-0.0580808
-0.0573849
-0.0566425
-0.055856
-0.0550278
-0.0541604
-0.0532564
-0.0523183
-0.051349
-0.0503509
-0.0493269
-0.0482796
-0.0472117
-0.0461257
-0.0450241
-0.0439096
-0.0427845
-0.041651
-0.0405114
-0.0393679
-0.0382225
-0.0370771
-0.0359335
-0.0347935
-0.0336586
-0.0325305
-0.0314105
-0.0303
-0.0292003
-0.0281125
-0.0270378
-0.0259772
-0.0249317
-0.0239021
-0.0228894
-0.0218943
-0.0209174
-0.0199596
-0.0190214
-0.0181034
-0.0172061
-0.0163299
-0.0154754
-0.0146429
-0.0138327
-0.0130451
-0.0122804
-0.0115387
-0.0108204
-0.0101254
-0.00945401
-0.00880615
-0.00818193
-0.00758137
-0.00700448
-0.00645124
-0.00592164
-0.00541564
-0.0049332
-0.00447428
-0.00403882
-0.00362677
-0.00323809
-0.00287273
-0.00253065
-0.0022118
-0.00191616
-0.00164367
-0.00139432
-0.00116808
-0.00096492
-0.000784809
-0.000627721
-0.000493626
-0.000382487
-0.000294268
-0.000228925
-0.000186412
-0.000166683
-0.000169689
-0.000195392
-0.000243761
-0.000314786
-0.000408479
-0.000524823
-0.000665974
-0.000743298
-0.0616629
-0.0617059
-0.0617579
-0.0617439
-0.0616662
-0.0615251
-0.0613213
-0.0610555
-0.0607286
-0.0603418
-0.0598963
-0.0593937
-0.0588356
-0.0582238
-0.0575604
-0.0568476
-0.0560876
-0.0552829
-0.0544359
-0.0535495
-0.0526262
-0.0516687
-0.05068
-0.0496628
-0.04862
-0.0475542
-0.0464683
-0.045365
-0.0442469
-0.0431165
-0.0419764
-0.040829
-0.0396764
-0.038521
-0.0373646
-0.0362094
-0.035057
-0.0339093
-0.0327679
-0.0316343
-0.0305099
-0.029396
-0.0282939
-0.0272048
-0.0261296
-0.0250695
-0.0240254
-0.0229981
-0.0219884
-0.0209971
-0.0200249
-0.0190725
-0.0181403
-0.017229
-0.0163391
-0.0154709
-0.0146249
-0.0138015
-0.0130008
-0.0122232
-0.011469
-0.0107382
-0.010031
-0.00934749
-0.00868773
-0.00805176
-0.00743958
-0.00685115
-0.00628646
-0.00574543
-0.005228
-0.00473408
-0.00426361
-0.00381649
-0.00339263
-0.00299195
-0.00261436
-0.0022598
-0.00192818
-0.00161944
-0.00133353
-0.00107038
-0.000829965
-0.000612225
-0.000417127
-0.000244635
-9.47116e-05
3.26768e-05
0.000137567
0.000219996
0.000280006
0.000317637
0.000332935
0.000325942
0.000296703
0.000245255
0.000171634
7.58675e-05
-4.19645e-05
-0.00018393
-0.00026148
-0.0612357
-0.0612795
-0.0613323
-0.0613173
-0.0612367
-0.0610909
-0.0608807
-0.0606067
-0.0602699
-0.0598717
-0.0594133
-0.0588964
-0.0583227
-0.0576942
-0.057013
-0.0562814
-0.0555018
-0.0546768
-0.0538091
-0.0529015
-0.0519567
-0.0509777
-0.0499675
-0.048929
-0.0478651
-0.0467788
-0.045673
-0.0445504
-0.0434139
-0.042266
-0.0411093
-0.0399464
-0.0387794
-0.0376107
-0.0364423
-0.0352762
-0.0341142
-0.032958
-0.0318093
-0.0306696
-0.0295403
-0.0284226
-0.0273178
-0.026227
-0.0251513
-0.0240916
-0.0230488
-0.0220237
-0.0210172
-0.02003
-0.0190627
-0.0181158
-0.0171901
-0.0162859
-0.0154038
-0.014544
-0.0137071
-0.0128933
-0.0121028
-0.0113359
-0.0105927
-0.00987348
-0.00917819
-0.0085069
-0.00785963
-0.00723637
-0.00663705
-0.00606162
-0.00550997
-0.004982
-0.00447759
-0.00399661
-0.00353894
-0.00310444
-0.00269299
-0.00230445
-0.00193872
-0.00159569
-0.00127524
-0.000977302
-0.000701779
-0.000448602
-0.000217707
-9.03741e-06
0.000177458
0.000341825
0.000484104
0.000604336
0.000702559
0.000778812
0.000833134
0.000865565
0.000876151
0.000864934
0.000831965
0.000777294
0.000700976
0.000603073
0.000483709
0.000340873
0.000263061
-0.0607956
-0.0608404
-0.060894
-0.0608778
-0.060794
-0.0606431
-0.0604258
-0.0601428
-0.0597953
-0.0593846
-0.058912
-0.0583794
-0.0577886
-0.0571416
-0.0564408
-0.0556884
-0.0548872
-0.0540398
-0.0531491
-0.052218
-0.0512495
-0.0502466
-0.0492126
-0.0481504
-0.0470633
-0.0459543
-0.0448264
-0.0436826
-0.0425257
-0.0413584
-0.0401836
-0.0390035
-0.0378207
-0.0366374
-0.0354558
-0.0342777
-0.0331051
-0.0319397
-0.030783
-0.0296366
-0.0285018
-0.02738
-0.0262722
-0.0251795
-0.024103
-0.0230437
-0.0220022
-0.0209795
-0.0199763
-0.0189933
-0.018031
-0.0170901
-0.0161711
-0.0152744
-0.0144004
-0.0135496
-0.0127223
-0.0119186
-0.0111389
-0.0103833
-0.00965202
-0.00894503
-0.00826239
-0.00760412
-0.00697015
-0.00636043
-0.00577484
-0.00521325
-0.00467552
-0.00416148
-0.00367096
-0.00320378
-0.00275976
-0.00233872
-0.00194048
-0.00156489
-0.00121178
-0.000881016
-0.000572459
-0.000285993
-2.1511e-05
0.000221079
0.00044186
0.000640903
0.000818269
0.000974013
0.00110818
0.00122082
0.00131198
0.00138168
0.00142997
0.0014569
0.0014625
0.00144682
0.00140993
0.00135187
0.00127273
0.00117259
0.0010516
0.000907795
0.000829665
-0.0603457
-0.0603916
-0.0604461
-0.0604286
-0.0603414
-0.0601848
-0.0599597
-0.059667
-0.0593077
-0.0588833
-0.0583953
-0.0578454
-0.0572358
-0.0565685
-0.0558461
-0.0550709
-0.0542459
-0.0533738
-0.0524577
-0.0515007
-0.050506
-0.0494768
-0.0484165
-0.0473283
-0.0462156
-0.0450815
-0.0439293
-0.0427621
-0.0415828
-0.0403944
-0.0391995
-0.0380007
-0.0368006
-0.0356014
-0.0344052
-0.0332142
-0.03203
-0.0308545
-0.0296892
-0.0285355
-0.0273949
-0.0262684
-0.0251573
-0.0240626
-0.0229852
-0.0219261
-0.020886
-0.0198657
-0.0188659
-0.0178872
-0.0169303
-0.0159956
-0.0150836
-0.0141947
-0.0133295
-0.0124881
-0.0116708
-0.0108779
-0.0101096
-0.00936603
-0.00864723
-0.00795323
-0.00728404
-0.00663958
-0.00601976
-0.00542444
-0.00485344
-0.00430659
-0.00378367
-0.00328445
-0.00280871
-0.0023562
-0.00192669
-0.00151996
-0.00113576
-0.000773908
-0.000434193
-0.000116437
0.000179523
0.000453835
0.000706629
0.000938021
0.00114811
0.00133698
0.0015047
0.00165134
0.00177695
0.00188158
0.00196527
0.00202806
0.00207
0.00209112
0.00209147
0.00207111
0.00203008
0.00196847
0.00188636
0.00178386
0.00166113
0.00151623
0.00143772
-0.0598896
-0.0599365
-0.0599921
-0.0599732
-0.0598821
-0.0597195
-0.059486
-0.0591825
-0.0588104
-0.058371
-0.0578661
-0.0572974
-0.0566672
-0.0559777
-0.0552316
-0.0544314
-0.0535802
-0.052681
-0.051737
-0.0507515
-0.0497279
-0.0486698
-0.0475806
-0.0464638
-0.0453229
-0.0441614
-0.0429825
-0.0417896
-0.0405858
-0.0393741
-0.0381574
-0.0369382
-0.0357192
-0.0345027
-0.0332909
-0.0320857
-0.0308891
-0.0297027
-0.028528
-0.0273665
-0.0262195
-0.0250881
-0.0239735
-0.0228765
-0.0217981
-0.0207392
-0.0197005
-0.0186827
-0.0176864
-0.0167123
-0.0157609
-0.0148326
-0.013928
-0.0130475
-0.0121913
-0.0113597
-0.0105531
-0.00977157