# vtk DataFile Version 2.0
insac
ASCII
DATASET STRUCTURED_GRID
DIMENSIONS 101 101 1
POINTS 10201 float
0 0 0
0.01 0 0
0.02 0 0
0.03 0 0
0.04 0 0
0.05 0 0
0.06 0 0
0.07 0 0
0.08 0 0
0.09 0 0
0.1 0 0
0.11 0 0
0.12 0 0
0.13 0 0
0.14 0 0
0.15 0 0
0.16 0 0
0.17 0 0
0.18 0 0
0.19 0 0
0.2 0 0
0.21 0 0
0.22 0 0
0.23 0 0
0.24 0 0
0.25 0 0
0.26 0 0
0.27 0 0
0.28 0 0
0.29 0 0
0.3 0 0
0.31 0 0
0.32 0 0
0.33 0 0
0.34 0 0
0.35 0 0
0.36 0 0
0.37 0 0
0.38 0 0
0.39 0 0
0.4 0 0
0.41 0 0
0.42 0 0
0.43 0 0
0.44 0 0
0.45 0 0
0.46 0 0
0.47 0 0
0.48 0 0
0.49 0 0
0.5 0 0
0.51 0 0
0.52 0 0
0.53 0 0
0.54 0 0
0.55 0 0
0.56 0 0
0.57 0 0
0.58 0 0
0.59 0 0
0.6 0 0
0.61 0 0
0.62 0 0
0.63 0 0
0.64 0 0
0.65 0 0
0.66 0 0
0.67 0 0
0.68 0 0
0.69 0 0
0.7 0 0
0.71 0 0
0.72 0 0
0.73 0 0
0.74 0 0
0.75 0 0
0.76 0 0
0.77 0 0
0.78 0 0
0.79 0 0
0.8 0 0
0.81 0 0
0.82 0 0
0.83 0 0
0.84 0 0
0.85 0 0
0.86 0 0
0.87 0 0
0.88 0 0
0.89 0 0
0.9 0 0
0.91 0 0
0.92 0 0
0.93 0 0
0.94 0 0
0.95 0 0
0.96 0 0
0.97 0 0
0.98 0 0
0.99 0 0
1 0 0
0 0.01 0
0.01 0.01 0
0.02 0.01 0
0.03 0.01 0
0.04 0.01 0
0.05 0.01 0
0.06 0.01 0
0.07 0.01 0
0.08 0.01 0
0.09 0.01 0
0.1 0.01 0
0.11 0.01 0
0.12 0.01 0
0.13 0.01 0
0.14 0.01 0
0.15 0.01 0
0.16 0.01 0
0.17 0.01 0
0.18 0.01 0
0.19 0.01 0
0.2 0.01 0
0.21 0.01 0
0.22 0.01 0
0.23 0.01 0
0.24 0.01 0
0.25 0.01 0
0.26 0.01 0
0.27 0.01 0
0.28 0.01 0
0.29 0.01 0
0.3 0.01 0
0.31 0.01 0
0.32 0.01 0
0.33 0.01 0
0.34 0.01 0
0.35 0.01 0
0.36 0.01 0
0.37 0.01 0
0.38 0.01 0
0.39 0.01 0
0.4 0.01 0
0.41 0.01 0
0.42 0.01 0
0.43 0.01 0
0.44 0.01 0
0.45 0.01 0
0.46 0.01 0
0.47 0.01 0
0.48 0.01 0
0.49 0.01 0
0.5 0.01 0
0.51 0.01 0
0.52 0.01 0
0.53 0.01 0
0.54 0.01 0
0.55 0.01 0
0.56 0.01 0
0.57 0.01 0
0.58 0.01 0
0.59 0.01 0
0.6 0.01 0
0.61 0.01 0
0.62 0.01 0
0.63 0.01 0
0.64 0.01 0
0.65 0.01 0
0.66 0.01 0
0.67 0.01 0
0.68 0.01 0
0.69 0.01 0
0.7 0.01 0
0.71 0.01 0
0.72 0.01 0
0.73 0.01 0
0.74 0.01 0
0.75 0.01 0
0.76 0.01 0
0.77 0.01 0
0.78 0.01 0
0.79 0.01 0
0.8 0.01 0
0.81 0.01 0
0.82 0.01 0
0.83 0.01 0
0.84 0.01 0
0.85 0.01 0
0.86 0.01 0
0.87 0.01 0
0.88 0.01 0
0.89 0.01 0
0.9 0.01 0
0.91 0.01 0
0.92 0.01 0
0.93 0.01 0
0.94 0.01 0
0.95 0.01 0
0.96 0.01 0
0.97 0.01 0
0.98 0.01 0
0.99 0.01 0
1 0.01 0
0 0.02 0
0.01 0.02 0
0.02 0.02 0
0.03 0.02 0
0.04 0.02 0
0.05 0.02 0
0.06 0.02 0
0.07 0.02 0
0.08 0.02 0
0.09 0.02 0
0.1 0.02 0
0.11 0.02 0
0.12 0.02 0
0.13 0.02 0
0.14 0.02 0
0.15 0.02 0
0.16 0.02 0
0.17 0.02 0
0.18 0.02 0
0.19 0.02 0
0.2 0.02 0
0.21 0.02 0
0.22 0.02 0
0.23 0.02 0
0.24 0.02 0
0.25 0.02 0
0.26 0.02 0
0.27 0.02 0
0.28 0.02 0
0.29 0.02 0
0.3 0.02 0
0.31 0.02 0
0.32 0.02 0
0.33 0.02 0
0.34 0.02 0
0.35 0.02 0
0.36 0.02 0
0.37 0.02 0
0.38 0.02 0
0.39 0.02 0
0.4 0.02 0
0.41 0.02 0
0.42 0.02 0
0.43 0.02 0
0.44 0.02 0
0.45 0.02 0
0.46 0.02 0
0.47 0.02 0
0.48 0.02 0
0.49 0.02 0
0.5 0.02 0
0.51 0.02 0
0.52 0.02 0
0.53 0.02 0
0.54 0.02 0
0.55 0.02 0
0.56 0.02 0
0.57 0.02 0
0.58 0.02 0
0.59 0.02 0
0.6 0.02 0
0.61 0.02 0
0.62 0.02 0
0.63 0.02 0
0.64 0.02 0
0.65 0.02 0
0.66 0.02 0
0.67 0.02 0
0.68 0.02 0
0.69 0.02 0
0.7 0.02 0
0.71 0.02 0
0.72 0.02 0
0.73 0.02 0
0.74 0.02 0
0.75 0.02 0
0.76 0.02 0
0.77 0.02 0
0.78 0.02 0
0.79 0.02 0
0.8 0.02 0
0.81 0.02 0
0.82 0.02 0
0.83 0.02 0
0.84 0.02 0
0.85 0.02 0
0.86 0.02 0
0.87 0.02 0
0.88 0.02 0
0.89 0.02 0
0.9 0.02 0
0.91 0.02 0
0.92 0.02 0
0.93 0.02 0
0.94 0.02 0
0.95 0.02 0
0.96 0.02 0
0.97 0.02 0
0.98 0.02 0
0.99 0.02 0
1 0.02 0
0 0.03 0
0.01 0.03 0
0.02 0.03 0
0.03 0.03 0
0.04 0.03 0
0.05 0.03 0
0.06 0.03 0
0.07 0.03 0
0.08 0.03 0
0.09 0.03 0
0.1 0.03 0
0.11 0.03 0
0.12 0.03 0
0.13 0.03 0
0.14 0.03 0
0.15 0.03 0
0.16 0.03 0
0.17 0.03 0
0.18 0.03 0
0.19 0.03 0
0.2 0.03 0
0.21 0.03 0
0.22 0.03 0
0.23 0.03 0
0.24 0.03 0
0.25 0.03 0
0.26 0.03 0
0.27 0.03 0
0.28 0.03 0
0.29 0.03 0
0.3 0.03 0
0.31 0.03 0
0.32 0.03 0
0.33 0.03 0
0.34 0.03 0
0.35 0.03 0
0.36 0.03 0
0.37 0.03 0
0.38 0.03 0
0.39 0.03 0
0.4 0.03 0
0.41 0.03 0
0.42 0.03 0
0.43 0.03 0
0.44 0.03 0
0.45 0.03 0
0.46 0.03 0
0.47 0.03 0
0.48 0.03 0
0.49 0.03 0
0.5 0.03 0
0.51 0.03 0
0.52 0.03 0
0.53 0.03 0
0.54 0.03 0
0.55 0.03 0
0.56 0.03 0
0.57 0.03 0
0.58 0.03 0
0.59 0.03 0
0.6 0.03 0
0.61 0.03 0
0.62 0.03 0
0.63 0.03 0
0.64 0.03 0
0.65 0.03 0
0.66 0.03 0
0.67 0.03 0
0.68 0.03 0
0.69 0.03 0
0.7 0.03 0
0.71 0.03 0
0.72 0.03 0
0.73 0.03 0
0.74 0.03 0
0.75 0.03 0
0.76 0.03 0
0.77 0.03 0
0.78 0.03 0
0.79 0.03 0
0.8 0.03 0
0.81 0.03 0
0.82 0.03 0
0.83 0.03 0
0.84 0.03 0
0.85 0.03 0
0.86 0.03 0
0.87 0.03 0
0.88 0.03 0
0.89 0.03 0
0.9 0.03 0
0.91 0.03 0
0.92 0.03 0
0.93 0.03 0
0.94 0.03 0
0.95 0.03 0
0.96 0.03 0
0.97 0.03 0
0.98 0.03 0
0.99 0.03 0
1 0.03 0
0 0.04 0
0.01 0.04 0
0.02 0.04 0
0.03 0.04 0
0.04 0.04 0
0.05 0.04 0
0.06 0.04 0
0.07 0.04 0
0.08 0.04 0
0.09 0.04 0
0.1 0.04 0
0.11 0.04 0
0.12 0.04 0
0.13 0.04 0
0.14 0.04 0
0.15 0.04 0
0.16 0.04 0
0.17 0.04 0
0.18 0.04 0
0.19 0.04 0
0.2 0.04 0
0.21 0.04 0
0.22 0.04 0
0.23 0.04 0
0.24 0.04 0
0.25 0.04 0
0.26 0.04 0
0.27 0.04 0
0.28 0.04 0
0.29 0.04 0
0.3 0.04 0
0.31 0.04 0
0.32 0.04 0
0.33 0.04 0
0.34 0.04 0
0.35 0.04 0
0.36 0.04 0
0.37 0.04 0
0.38 0.04 0
0.39 0.04 0
0.4 0.04 0
0.41 0.04 0
0.42 0.04 0
0.43 0.04 0
0.44 0.04 0
0.45 0.04 0
0.46 0.04 0
0.47 0.04 0
0.48 0.04 0
0.49 0.04 0
0.5 0.04 0
0.51 0.04 0
0.52 0.04 0
0.53 0.04 0
0.54 0.04 0
0.55 0.04 0
0.56 0.04 0
0.57 0.04 0
0.58 0.04 0
0.59 0.04 0
0.6 0.04 0
0.61 0.04 0
0.62 0.04 0
0.63 0.04 0
0.64 0.04 0
0.65 0.04 0
0.66 0.04 0
0.67 0.04 0
0.68 0.04 0
0.69 0.04 0
0.7 0.04 0
0.71 0.04 0
0.72 0.04 0
0.73 0.04 0
0.74 0.04 0
0.75 0.04 0
0.76 0.04 0
0.77 0.04 0
0.78 0.04 0
0.79 0.04 0
0.8 0.04 0
0.81 0.04 0
0.82 0.04 0
0.83 0.04 0
0.84 0.04 0
0.85 0.04 0
0.86 0.04 0
0.87 0.04 0
0.88 0.04 0
0.89 0.04 0
0.9 0.04 0
0.91 0.04 0
0.92 0.04 0
0.93 0.04 0
0.94 0.04 0
0.95 0.04 0
0.96 0.04 0
0.97 0.04 0
0.98 0.04 0
0.99 0.04 0
1 0.04 0
0 0.05 0
0.01 0.05 0
0.02 0.05 0
0.03 0.05 0
0.04 0.05 0
0.05 0.05 0
0.06 0.05 0
0.07 0.05 0
0.08 0.05 0
0.09 0.05 0
0.1 0.05 0
0.11 0.05 0
0.12 0.05 0
0.13 0.05 0
0.14 0.05 0
0.15 0.05 0
0.16 0.05 0
0.17 0.05 0
0.18 0.05 0
0.19 0.05 0
0.2 0.05 0
0.21 0.05 0
0.22 0.05 0
0.23 0.05 0
0.24 0.05 0
0.25 0.05 0
0.26 0.05 0
0.27 0.05 0
0.28 0.05 0
0.29 0.05 0
0.3 0.05 0
0.31 0.05 0
0.32 0.05 0
0.33 0.05 0
0.34 0.05 0
0.35 0.05 0
0.36 0.05 0
0.37 0.05 0
0.38 0.05 0
0.39 0.05 0
0.4 0.05 0
0.41 0.05 0
0.42 0.05 0
0.43 0.05 0
0.44 0.05 0
0.45 0.05 0
0.46 0.05 0
0.47 0.05 0
0.48 0.05 0
0.49 0.05 0
0.5 0.05 0
0.51 0.05 0
0.52 0.05 0
0.53 0.05 0
0.54 0.05 0
0.55 0.05 0
0.56 0.05 0
0.57 0.05 0
0.58 0.05 0
0.59 0.05 0
0.6 0.05 0
0.61 0.05 0
0.62 0.05 0
0.63 0.05 0
0.64 0.05 0
0.65 0.05 0
0.66 0.05 0
0.67 0.05 0
0.68 0.05 0
0.69 0.05 0
0.7 0.05 0
0.71 0.05 0
0.72 0.05 0
0.73 0.05 0
0.74 0.05 0
0.75 0.05 0
0.76 0.05 0
0.77 0.05 0
0.78 0.05 0
0.79 0.05 0
0.8 0.05 0
0.81 0.05 0
0.82 0.05 0
0.83 0.05 0
0.84 0.05 0
0.85 0.05 0
0.86 0.05 0
0.87 0.05 0
0.88 0.05 0
0.89 0.05 0
0.9 0.05 0
0.91 0.05 0
0.92 0.05 0
0.93 0.05 0
0.94 0.05 0
0.95 0.05 0
0.96 0.05 0
0.97 0.05 0
0.98 0.05 0
0.99 0.05 0
1 0.05 0
0 0.06 0
0.01 0.06 0
0.02 0.06 0
0.03 0.06 0
0.04 0.06 0
0.05 0.06 0
0.06 0.06 0
0.07 0.06 0
0.08 0.06 0
0.09 0.06 0
0.1 0.06 0
0.11 0.06 0
0.12 0.06 0
0.13 0.06 0
0.14 0.06 0
0.15 0.06 0
0.16 0.06 0
0.17 0.06 0
0.18 0.06 0
0.19 0.06 0
0.2 0.06 0
0.21 0.06 0
0.22 0.06 0
0.23 0.06 0
0.24 0.06 0
0.25 0.06 0
0.26 0.06 0
0.27 0.06 0
0.28 0.06 0
0.29 0.06 0
0.3 0.06 0
0.31 0.06 0
0.32 0.06 0
0.33 0.06 0
0.34 0.06 0
0.35 0.06 0
0.36 0.06 0
0.37 0.06 0
0.38 0.06 0
0.39 0.06 0
0.4 0.06 0
0.41 0.06 0
0.42 0.06 0
0.43 0.06 0
0.44 0.06 0
0.45 0.06 0
0.46 0.06 0
0.47 0.06 0
0.48 0.06 0
0.49 0.06 0
0.5 0.06 0
0.51 0.06 0
0.52 0.06 0
0.53 0.06 0
0.54 0.06 0
0.55 0.06 0
0.56 0.06 0
0.57 0.06 0
0.58 0.06 0
0.59 0.06 0
0.6 0.06 0
0.61 0.06 0
0.62 0.06 0
0.63 0.06 0
0.64 0.06 0
0.65 0.06 0
0.66 0.06 0
0.67 0.06 0
0.68 0.06 0
0.69 0.06 0
0.7 0.06 0
0.71 0.06 0
0.72 0.06 0
0.73 0.06 0
0.74 0.06 0
0.75 0.06 0
0.76 0.06 0
0.77 0.06 0
0.78 0.06 0
0.79 0.06 0
0.8 0.06 0
0.81 0.06 0
0.82 0.06 0
0.83 0.06 0
0.84 0.06 0
0.85 0.06 0
0.86 0.06 0
0.87 0.06 0
0.88 0.06 0
0.89 0.06 0
0.9 0.06 0
0.91 0.06 0
0.92 0.06 0
0.93 0.06 0
0.94 0.06 0
0.95 0.06 0
0.96 0.06 0
0.97 0.06 0
0.98 0.06 0
0.99 0.06 0
1 0.06 0
0 0.07 0
0.01 0.07 0
0.02 0.07 0
0.03 0.07 0
0.04 0.07 0
0.05 0.07 0
0.06 0.07 0
0.07 0.07 0
0.08 0.07 0
0.09 0.07 0
0.1 0.07 0
0.11 0.07 0
0.12 0.07 0
0.13 0.07 0
0.14 0.07 0
0.15 0.07 0
0.16 0.07 0
0.17 0.07 0
0.18 0.07 0
0.19 0.07 0
0.2 0.07 0
0.21 0.07 0
0.22 0.07 0
0.23 0.07 0
0.24 0.07 0
0.25 0.07 0
0.26 0.07 0
0.27 0.07 0
0.28 0.07 0
0.29 0.07 0
0.3 0.07 0
0.31 0.07 0
0.32 0.07 0
0.33 0.07 0
0.34 0.07 0
0.35 0.07 0
0.36 0.07 0
0.37 0.07 0
0.38 0.07 0
0.39 0.07 0
0.4 0.07 0
0.41 0.07 0
0.42 0.07 0
0.43 0.07 0
0.44 0.07 0
0.45 0.07 0
0.46 0.07 0
0.47 0.07 0
0.48 0.07 0
0.49 0.07 0
0.5 0.07 0
0.51 0.07 0
0.52 0.07 0
0.53 0.07 0
0.54 0.07 0
0.55 0.07 0
0.56 0.07 0
0.57 0.07 0
0.58 0.07 0
0.59 0.07 0
0.6 0.07 0
0.61 0.07 0
0.62 0.07 0
0.63 0.07 0
0.64 0.07 0
0.65 0.07 0
0.66 0.07 0
0.67 0.07 0
0.68 0.07 0
0.69 0.07 0
0.7 0.07 0
0.71 0.07 0
0.72 0.07 0
0.73 0.07 0
0.74 0.07 0
0.75 0.07 0
0.76 0.07 0
0.77 0.07 0
0.78 0.07 0
0.79 0.07 0
0.8 0.07 0
0.81 0.07 0
0.82 0.07 0
0.83 0.07 0
0.84 0.07 0
0.85 0.07 0
0.86 0.07 0
0.87 0.07 0
0.88 0.07 0
0.89 0.07 0
0.9 0.07 0
0.91 0.07 0
0.92 0.07 0
0.93 0.07 0
0.94 0.07 0
0.95 0.07 0
0.96 0.07 0
0.97 0.07 0
0.98 0.07 0
0.99 0.07 0
1 0.07 0
0 0.08 0
0.01 0.08 0
0.02 0.08 0
0.03 0.08 0
0.04 0.08 0
0.05 0.08 0
0.06 0.08 0
0.07 0.08 0
0.08 0.08 0
0.09 0.08 0
0.1 0.08 0
0.11 0.08 0
0.12 0.08 0
0.13 0.08 0
0.14 0.08 0
0.15 0.08 0
0.16 0.08 0
0.17 0.08 0
0.18 0.08 0
0.19 0.08 0
0.2 0.08 0
0.21 0.08 0
0.22 0.08 0
0.23 0.08 0
0.24 0.08 0
0.25 0.08 0
0.26 0.08 0
0.27 0.08 0
0.28 0.08 0
0.29 0.08 0
0.3 0.08 0
0.31 0.08 0
0.32 0.08 0
0.33 0.08 0
0.34 0.08 0
0.35 0.08 0
0.36 0.08 0
0.37 0.08 0
0.38 0.08 0
0.39 0.08 0
0.4 0.08 0
0.41 0.08 0
0.42 0.08 0
0.43 0.08 0
0.44 0.08 0
0.45 0.08 0
0.46 0.08 0
0.47 0.08 0
0.48 0.08 0
0.49 0.08 0
0.5 0.08 0
0.51 0.08 0
[...]
POINT_DATA 10201
SCALARS pressure float 1
LOOKUP_TABLE default
0.0172341
0.0172202
0.0171759
0.017099
0.0169919
0.0168592
0.0167064
0.016539
0.0163621
0.0161802
0.0159971
0.0158164
0.0156406
0.0154723
0.0153132
0.015165
0.015029
0.0149061
0.0147971
0.0147028
0.0146234
0.0145596
0.0145114
0.0144791
0.014463
0.0144629
0.0144792
0.0145117
0.0145604
0.0146255
0.0147069
0.0148044
0.0149182
0.0150479
0.0151936
0.015355
0.0155319
0.015724
0.0159311
0.0161527
0.0163882
0.0166373
0.0168993
0.0171733
0.0174587
0.0177545
0.0180597
0.0183731
0.0186936
0.0190199
0.0193505
0.019684
0.0200187
0.0203531
0.0206854
0.0210138
0.0213366
0.0216518
0.0219577
0.0222524
0.022534
0.0228008
0.0230511
0.0232832
0.0234954
0.0236865
0.0238551
0.0240001
0.0241205
0.0242154
0.0242844
0.024327
0.0243431
0.0243328
0.0242964
0.0242344
0.0241478
0.0240375
0.0239049
0.0237515
0.0235792
0.0233899
0.0231858
0.0229694
0.0227434
0.0225105
0.0222738
0.0220363
0.0218016
0.0215729
0.0213538
0.021148
0.0209591
0.0207907
0.0206461
0.0205284
0.0204395
0.0203796
0.0203465
0.020334
0.0203318
0.0172203
0.0172082
0.0171677
0.0170955
0.0169947
0.0168696
0.0167254
0.0165671
0.0163994
0.0162266
0.0160523
0.0158799
0.015712
0.0155508
0.0153984
0.0152561
0.0151254
0.0150072
0.0149023
0.0148114
0.014735
0.0146735
0.0146272
0.0145963
0.014581
0.0145814
0.0145975
0.0146296
0.0146774
0.0147412
0.0148208
0.0149162
0.0150273
0.0151541
0.0152964
0.0154541
0.0156268
0.0158144
0.0160165
0.0162327
0.0164625
0.0167055
0.0169609
0.0172281
0.0175063
0.0177946
0.0180919
0.0183973
0.0187094
0.0190271
0.019349
0.0196736
0.0199993
0.0203246
0.0206478
0.0209673
0.0212811
0.0215876
0.0218849
0.0221712
0.0224449
0.0227041
0.0229472
0.0231725
0.0233787
0.0235643
0.023728
0.0238688
0.0239857
0.024078
0.0241451
0.0241867
0.0242026
0.024193
0.0241581
0.0240986
0.0240152
0.0239091
0.0237814
0.0236337
0.0234678
0.0232855
0.0230892
0.0228811
0.0226638
0.0224401
0.0222128
0.0219851
0.02176
0.0215409
0.0213311
0.0211342
0.0209535
0.0207924
0.0206541
0.0205411
0.0204554
0.0203974
0.0203654
0.0203553
0.020355
0.0172101
0.0172009
0.0171664
0.0171019
0.0170113
0.016899
0.0167693
0.0166267
0.0164752
0.0163186
0.0161602
0.0160029
0.0158493
0.0157015
0.0155612
0.0154301
0.0153093
0.0151999
0.0151027
0.0150184
0.0149476
0.0148906
0.0148478
0.0148195
0.0148058
0.0148069
0.0148229
0.014854
0.0149
0.0149611
0.0150373
0.0151285
0.0152346
0.0153556
0.0154914
0.0156417
0.0158063
0.015985
0.0161775
0.0163833
0.0166021
0.0168333
0.0170763
0.0173304
0.0175948
0.0178687
0.0181511
0.018441
0.0187373
0.0190388
0.019344
0.0196518
0.0199605
0.0202688
0.0205749
0.0208774
0.0211744
0.0214644
0.0217457
0.0220165
0.0222752
0.0225202
0.0227499
0.0229628
0.0231576
0.0233328
0.0234875
0.0236205
0.023731
0.0238183
0.0238819
0.0239215
0.0239371
0.0239286
0.0238966
0.0238414
0.023764
0.0236653
0.0235466
0.0234093
0.0232551
0.0230859
0.0229037
0.0227107
0.0225094
0.0223024
0.0220923
0.021882
0.0216745
0.0214727
0.0212798
0.0210988
0.0209328
0.0207848
0.0206575
0.0205532
0.0204736
0.0204197
0.0203912
0.0203874
0.0203915
0.0172367
0.0172277
0.0171946
0.0171334
0.0170487
0.0169445
0.0168249
0.0166937
0.0165544
0.0164104
0.0162647
0.0161198
0.015978
0.0158414
0.0157117
0.0155902
0.0154781
0.0153766
0.0152863
0.0152079
0.0151421
0.0150892
0.0150496
0.0150236
0.0150113
0.015013
0.0150288
0.0150588
0.0151031
0.0151616
0.0152344
0.0153215
0.0154228
0.0155382
0.0156676
0.0158108
0.0159678
0.0161381
0.0163214
0.0165175
0.0167259
0.0169461
0.0171774
0.0174193
0.017671
0.0179317
0.0182004
0.0184763
0.0187581
0.0190448
0.0193351
0.0196277
0.0199212
0.0202142
0.0205051
0.0207925
0.0210747
0.0213501
0.0216172
0.0218743
0.0221199
0.0223524
0.0225704
0.0227725
0.0229572
0.0231235
0.0232702
0.0233964
0.0235013
0.0235842
0.0236447
0.0236825
0.0236976
0.02369
0.0236602
0.0236087
0.0235361
0.0234437
0.0233324
0.0232038
0.0230593
0.0229009
0.0227304
0.02255
0.022362
0.0221687
0.0219728
0.0217768
0.0215836
0.0213958
0.0212164
0.0210481
0.0208938
0.0207561
0.0206374
0.0205399
0.0204655
0.0204157
0.0203914
0.0203943
0.0204028
0.0172997
0.0172876
0.0172499
0.0171875
0.0171045
0.0170045
0.0168911
0.0167677
0.0166373
0.016503
0.0163672
0.0162323
0.0161004
0.0159733
0.0158525
0.0157394
0.015635
0.0155404
0.0154562
0.0153832
0.0153219
0.0152727
0.0152359
0.015212
0.015201
0.0152031
0.0152186
0.0152475
0.0152898
0.0153457
0.0154152
0.0154982
0.0155947
0.0157046
0.0158279
0.0159644
0.0161138
0.016276
0.0164507
0.0166374
0.0168359
0.0170456
0.017266
0.0174964
0.0177362
0.0179846
0.0182406
0.0185035
0.018772
0.0190452
0.0193218
0.0196006
0.0198803
0.0201595
0.0204367
0.0207105
0.0209794
0.0212419
0.0214963
0.0217413
0.0219753
0.0221968
0.0224045
0.022597
0.022773
0.0229314
0.0230711
0.0231913
0.0232912
0.0233702
0.0234279
0.0234641
0.0234786
0.0234716
0.0234436
0.0233949
0.0233264
0.0232391
0.023134
0.0230125
0.0228762
0.0227267
0.0225659
0.0223959
0.0222188
0.0220369
0.0218525
0.0216683
0.0214866
0.0213101
0.0211414
0.0209832
0.0208379
0.0207079
0.0205957
0.0205033
0.0204327
0.0203856
0.0203639
0.0203702
0.0203808
0.0173945
0.0173764
0.0173292
0.0172613
0.0171761
0.0170768
0.0169663
0.0168475
0.0167232
0.0165957
0.0164675
0.0163405
0.0162166
0.0160973
0.0159841
0.0158781
0.0157803
0.0156917
0.015613
0.0155446
0.0154873
0.0154413
0.0154071
0.0153848
0.0153748
0.0153772
0.0153922
0.0154199
0.0154603
0.0155135
0.0155796
0.0156586
0.0157504
0.015855
0.0159722
0.0161021
0.0162443
0.0163987
0.016565
0.0167429
0.0169319
0.0171318
0.0173418
0.0175615
0.0177902
0.0180271
0.0182714
0.0185222
0.0187785
0.0190394
0.0193035
0.0195699
0.0198371
0.0201038
0.0203688
0.0206305
0.0208876
0.0211385
0.0213819
0.0216162
0.02184
0.0220519
0.0222505
0.0224347
0.022603
0.0227545
0.0228882
0.0230032
0.0230988
0.0231744
0.0232296
0.0232642
0.0232781
0.0232716
0.0232448
0.0231985
0.0231332
0.02305
0.0229499
0.0228342
0.0227044
0.0225622
0.0224093
0.0222477
0.0220794
0.0219065
0.0217314
0.0215564
0.0213838
0.0212161
0.0210556
0.0209049
0.0207662
0.0206418
0.0205339
0.0204446
0.0203758
0.0203295
0.0203078
0.0203136
0.020324
0.0175148
0.0174888
0.0174282
0.0173515
0.0172609
0.0171591
0.0170486
0.0169318
0.0168109
0.016688
0.0165652
0.0164442
0.0163264
0.0162134
0.0161064
0.0160063
0.0159142
0.0158307
0.0157566
0.0156923
0.0156384
0.0155952
0.015563
0.0155422
0.0155329
0.0155353
0.0155496
0.0155759
0.0156143
0.0156648
0.0157276
0.0158025
0.0158896
0.0159889
0.0161003
0.0162237
0.016359
0.0165058
0.0166641
0.0168335
0.0170137
0.0172041
0.0174045
0.0176141
0.0178324
0.0180586
0.0182921
0.0185319
0.0187771
0.0190266
0.0192795
0.0195346
0.0197906
0.0200462
0.0203003
0.0205513
0.020798
0.0210388
0.0212724
0.0214974
0.0217124
0.0219159
0.0221068
0.0222837
0.0224455
0.0225912
0.0227197
0.0228302
0.0229221
0.0229947
0.0230477
0.0230809
0.0230943
0.0230879
0.0230622
0.0230176
0.0229548
0.0228748
0.0227786
0.0226675
0.0225429
0.0224064
0.0222597
0.0221046
0.0219431
0.0217773
0.0216093
0.0214412
0.0212754
0.0211142
0.0209597
0.0208141
0.0206798
0.0205588
0.0204532
0.0203649
0.020296
0.0202482
0.0202238
0.0202256
0.0202335
0.0176547
0.0176193
0.0175427
0.0174544
0.0173559
0.0172491
0.0171361
0.0170188
0.0168992
0.0167789
0.0166595
0.0165427
0.0164296
0.0163214
0.0162193
0.0161241
0.0160365
0.0159573
0.015887
0.0158262
0.0157751
0.0157342
0.0157037
0.015684
0.0156751
0.0156773
0.0156907
0.0157155
0.0157517
0.0157994
0.0158587
0.0159296
0.0160121
0.0161062
0.0162119
0.016329
0.0164575
0.0165971
0.0167477
0.0169089
0.0170806
0.0172622
0.0174534
0.0176536
0.0178622
0.0180786
0.0183021
0.0185317
0.0187667
0.0190061
0.0192488
0.0194937
0.0197397
0.0199855
0.0202299
0.0204716
0.0207091
0.0209412
0.0211664
0.0213834
0.0215907
0.0217872
0.0219715
0.0221423
0.0222987
0.0224394
0.0225635
0.0226703
0.0227591
0.0228292
0.0228804
0.0229124
0.0229252
0.0229189
0.0228938
0.0228505
0.0227897
0.0227121
0.0226189
0.0225113
0.0223906
0.0222584
0.0221162
0.021966
0.0218096
0.0216489
0.021486
0.0213229
0.0211619
0.0210049
0.0208542
0.0207118
0.0205797
0.0204601
0.0203547
0.0202655
0.0201944
0.0201431
0.0201136
0.0201083
0.0201121
0.0178082
0.0177627
0.0176682
0.0175664
0.0174579
0.0173441
0.0172266
0.017107
0.0169866
0.0168671
0.0167496
0.0166353
0.0165254
0.0164209
0.0163225
0.016231
0.0161471
0.0160714
0.0160042
0.0159461
0.0158973
0.0158582
0.015829
0.0158099
0.0158011
0.0158028
0.0158151
0.0158382
0.0158721
0.0159169
0.0159726
0.0160395
0.0161174
0.0162063
0.0163063
0.0164173
0.0165392
0.0166718
0.016815
0.0169685
0.017132
0.0173053
0.0174879
0.0176792
0.0178789
0.0180861
0.0183004
0.0185208
0.0187465
0.0189766
0.0192102
0.0194461
0.0196832
0.0199204
0.0201564
0.0203899
0.0206195
0.0208441
0.0210621
0.0212723
0.0214734
0.0216639
0.0218428
0.0220086
0.0221604
0.0222971
0.0224178
0.0225216
0.0226078
0.022676
0.0227257
0.0227567
0.022769
0.0227628
0.0227382
0.0226958
0.0226363
0.0225605
0.0224694
0.0223643
0.0222464
0.0221172
0.0219783
0.0218314
0.0216784
0.0215211
0.0213615
0.0212016
0.0210433
0.0208887
0.0207398
0.0205985
0.0204669
0.0203467
0.0202397
0.0201477
0.0200725
0.0200157
0.0199789
0.0199642
0.0199627
0.0179703
0.0179141
0.0178007
0.017684
0.017564
0.0174415
0.0173179
0.0171942
0.0170717
0.0169513
0.0168342
0.0167212
0.0166132
0.0165111
0.0164153
0.0163267
0.0162456
0.0161724
0.0161077
0.0160517
0.0160046
0.0159668
0.0159384
0.0159196
0.0159105
0.0159114
0.0159224
0.0159435
0.0159749
0.0160166
0.0160688
0.0161315
0.0162048
0.0162886
0.016383
0.016488
0.0166034
0.0167292
0.0168653
0.0170114
0.0171672
0.0173325
0.017507
0.0176901
0.0178814
0.0180802
0.018286
0.0184979
0.0187153
0.0189371
0.0191625
0.0193905
0.0196198
0.0198494
0.0200781
0.0203046
0.0205276
0.0207459
0.020958
0.0211626
0.0213585
0.0215442
0.0217187
0.0218806
0.0220289
0.0221625
0.0222805
0.022382
0.0224664
0.0225331
0.0225818
0.0226121
0.0226241
0.0226178
0.0225936
0.0225518
0.0224933
0.0224186
0.022329
0.0222255
0.0221093
0.021982
0.0218451
0.0217003
0.0215492
0.0213938
0.0212358
0.0210773
0.02092
0.020766
0.0206171
0.0204752
0.0203421
0.0202196
0.0201093
0.0200128
0.0199318
0.0198677
0.019822
0.0197962
0.0197884
0.0181365
0.0180694
0.0179362
0.0178038
0.0176711
0.0175388
0.0174077
0.0172787
0.0171526
0.0170301
0.0169121
0.0167992
0.0166921
0.0165912
0.0164972
0.0164104
0.0163312
0.01626
0.016197
0.0161424
0.0160965
0.0160595
0.0160314
0.0160125
0.0160028
0.0160026
0.0160119
0.0160309
0.0160595
0.0160981
0.0161466
0.016205
0.0162736
0.0163523
0.0164412
0.0165402
0.0166494
0.0167686
0.0168977
0.0170367
0.0171852
0.017343
0.0175098
0.0176851
0.0178686
0.0180597
0.0182577
0.018462
0.0186718
0.0188862
0.0191044
0.0193253
0.0195479
0.019771
0.0199935
0.0202142
0.0204317
0.0206448
0.0208521
0.0210523
0.0212441
0.0214262
0.0215974
0.0217564
0.0219022
0.0220336
0.0221497
0.0222497
0.0223329
0.0223987
0.0224468
0.0224767
0.0224886
0.0224824
0.0224585
0.0224172
0.0223592
0.0222853
0.0221965
0.0220938
0.0219786
0.0218522
0.0217162
0.0215721
0.0214217
0.0212667
0.0211089
0.0209502
0.0207924
0.0206373
0.0204868
0.0203426
0.0202064
0.0200799
0.0199646
0.0198621
0.0197738
0.019701
0.0196449
0.0196066
0.019592
0.0183027
0.0182246
0.0180714
0.0179225
0.0177764
0.0176333
0.0174938
0.0173584
0.0172276
0.017102
0.016982
0.0168682
0.0167608
0.0166604
0.0165672
0.0164815
0.0164035
0.0163334
0.0162715
0.0162178
0.0161724
0.0161356
0.0161075
0.016088
0.0160774
0.0160757
0.016083
0.0160996
0.0161253
0.0161605
0.0162051
0.0162592
0.0163231
0.0163966
0.01648
0.0165731
0.0166761
0.0167888
0.0169113
0.0170433
0.0171848
0.0173355
0.017495
0.0176631
0.0178394
0.0180233
0.0182142
0.0184115
0.0186145
0.0188224
0.0190342
0.0192491
0.0194659
0.0196836
0.0199009
0.0201168
0.0203299
0.0205389
0.0207425
0.0209395
0.0211284
0.0213079
0.0214769
0.021634
0.0217782
0.0219084
0.0220235
0.0221228
0.0222055
0.022271
0.0223189
0.0223489
0.0223609
0.022355
0.0223313
0.0222904
0.0222328
0.0221593
0.0220708
0.0219684
0.0218534
0.0217271
0.0215909
0.0214465
0.0212955
0.0211397
0.0209807
0.0208204
0.0206605
0.0205029
0.0203492
0.0202012
0.0200604
0.0199285
0.0198068
0.0196969
0.0195999
0.0195171
0.0194496
0.0193979
0.019376
0.0184652
0.0183761
0.0182029
0.0180372
0.0178771
0.0177225
0.0175738
0.0174312
0.0172949
0.0171652
0.0170424
0.0169268
0.0168184
0.0167175
0.0166243
0.0165389
0.0164614
0.0163918
0.0163303
0.0162769
0.0162316
0.0161946
0.0161658
0.0161454
0.0161334
0.0161299
0.016135
0.0161488
0.0161714
0.0162029
0.0162435
0.0162932
0.0163522
0.0164205
0.0164983
0.0165857
0.0166825
0.0167889
0.0169049
0.0170302
0.017165
0.0173088
0.0174615
0.0176228
0.0177923
0.0179696
0.018154
0.0183451
0.018542
0.0187441
0.0189504
0.0191601
0.019372
0.0195852
0.0197985
0.0200106
0.0202203
0.0204264
0.0206274
0.0208222
0.0210092
0.0211873
0.0213551
0.0215114
0.021655
0.0217848
0.0218999
0.0219992
0.0220822
0.022148
0.0221964
0.0222269
0.0222394
0.022234
0.0222108
0.0221702
0.0221129
0.0220395
0.021951
0.0218483
0.0217328
0.0216058
0.0214687
0.021323
0.0211704
0.0210126
0.0208512
0.020688
0.0205248
0.0203632
0.020205
0.0200517
0.019905
0.0197663
0.0196369
0.0195183
0.0194115
0.0193177
0.0192377
0.0191719
0.0191425
0.0186208
0.0185208
0.0183275
0.018145
0.0179705
0.0178041
0.0176456
0.0174951
0.0173526
0.0172182
0.0170918
0.0169736
0.0168635
0.0167615
0.0166676
0.0165818
0.016504
0.0164344
0.0163727
0.016319
0.0162732
0.0162354
0.0162056
0.0161838
0.01617
0.0161643
0.0161668
0.0161776
0.0161968
0.0162244
0.0162608
0.0163059
0.0163599
0.016423
0.0164952
0.0165767
0.0166675
0.0167676
0.0168772
0.0169961
0.0171243
0.0172616
0.0174078
0.0175627
0.0177259
0.017897
0.0180756
0.018261
0.0184526
0.0186496
0.0188512
0.0190565
0.0192645
0.0194741
0.0196842
0.0198935
0.020101
0.0203051
0.0205046
0.0206982
0.0208845
0.0210622
0.0212299
0.0213864
0.0215304
0.0216609
0.0217768
0.0218771
0.021961
0.022028
0.0220774
0.0221089
0.0221224
0.0221178
0.0220953
0.0220552
0.0219981
0.0219247
0.0218359
0.0217327
0.0216162
0.0214879
0.021349
0.0212013
0.0210461
0.0208852
0.0207204
0.0205532
0.0203854
0.0202186
0.0200546
0.0198948
0.0197408
0.019594
0.0194558
0.0193273
0.0192097
0.0191039
0.0190109
0.0189305
0.0188933
0.0187665
0.0186558
0.0184427
0.0182432
0.0180543
0.0178756
0.017707
0.0175481
0.0173989
0.0172591
0.0171286
0.0170072
0.0168946
0.0167909
0.0166957
0.0166089
0.0165304
0.01646
0.0163975
0.016343
0.0162963
0.0162572
0.0162259
0.0162022
0.0161863
0.016178
0.0161776
0.016185
0.0162005
0.016224
0.0162559
0.0162962
0.0163451
0.0164028
0.0164693
0.0165449
0.0166296
0.0167236
0.0168269
0.0169395
0.0170613
0.0171923
0.0173324
0.0174812
0.0176385
0.017804
0.0179772
0.0181575
0.0183443
0.018537
0.0187346
0.0189363
0.0191412
0.0193481
0.019556
0.0197636
0.0199697
0.0201729
0.020372
0.0205655
0.0207522
0.0209305
0.0210992
0.0212569
0.0214024
0.0215345
0.0216522
0.0217543
0.0218402
0.021909
0.0219602
0.0219934
0.0220083
0.022005
0.0219834
0.021944
0.0218873
0.0218139
0.0217246
0.0216205
0.0215027
0.0213726
0.0212315
0.0210809
0.0209223
0.0207576
0.0205882
0.0204159
0.0202424
0.0200693
0.0198983
0.0197308
0.0195684
0.0194125
0.0192642
0.0191249
0.0189956
0.0188772
0.0187704
0.0186749
0.0186298
0.0188995
0.0187782
0.0185455
0.0183292
0.0181258
0.0179348
0.0177558
0.0175883
0.0174319
0.0172864
0.0171512
0.017026
0.0169106
0.0168044
0.0167074
0.016619
0.0165392
0.0164675
0.0164038
0.016348
0.0162997
0.016259
0.0162257
0.0161997
0.0161811
0.0161699
0.0161662
0.0161699
0.0161813
0.0162005
0.0162277
0.016263
0.0163065
0.0163586
0.0164194
0.016489
0.0165677
0.0166555
0.0167525
0.0168589
0.0169745
0.0170995
0.0172336
0.0173766
0.0175285
0.0176887
0.017857
0.0180327
0.0182154
0.0184043
0.0185986
0.0187975
0.0190001
0.0192052
0.0194117
0.0196184
0.0198242
0.0200276
0.0202272
0.0204218
0.0206098
0.0207899
0.0209606
0.0211207
0.0212687
0.0214035
0.0215239
0.0216289
0.0217176
0.0217891
0.0218429
0.0218784
0.0218955
0.0218939
0.0218738
0.0218354
0.0217792
0.0217059
0.0216161
0.021511
0.0213917
0.0212594
0.0211154
0.0209614
0.0207988
0.0206293
0.0204546
0.0202763
0.0200961
0.0199157
0.0197365
0.0195603
0.0193884
0.0192223
0.0190631
0.018912
0.0187701
0.0186383
0.0185173
0.0184065
0.0183534
0.0190172
0.0188855
0.0186336
0.0184008
0.0181829
0.0179795
0.0177899
0.0176135
0.0174498
0.0172981
0.0171579
0.0170286
0.0169097
0.0168008
0.0167014
0.016611
0.0165293
0.0164558
0.0163904
0.0163327
0.0162825
0.0162395
0.0162038
0.0161751
0.0161535
0.0161389
0.0161314
0.0161312
0.0161382
0.0161527
0.0161748
0.0162048
0.0162429
0.0162892
0.0163441
0.0164076
0.0164801
0.0165617
0.0166525
0.0167527
0.0168623
0.0169813
0.0171096
0.0172472
0.0173938
0.0175492
0.017713
0.0178846
0.0180637
0.0182494
0.0184411
0.0186379
0.0188388
0.0190429
0.019249
0.0194558
0.0196621
0.0198666
0.0200679
0.0202645
0.020455
0.0206379
0.0208119
0.0209753
0.021127
0.0212656
0.0213899
0.0214988
0.0215912
0.0216664
0.0217236
0.0217623
0.0217822
0.021783
0.0217649
0.021728
0.0216727
0.0215996
0.0215095
0.0214034
0.0212823
0.0211475
0.0210004
0.0208425
0.0206753
0.0205004
0.0203196
0.0201344
0.0199466
0.0197578
0.0195697
0.0193837
0.0192013
0.019024
0.0188529
0.0186893
0.0185341
0.0183882
0.0182524
0.018126
0.0180648
0.0191171
0.0189754
0.0187047
0.0184554
0.0182233
0.0180075
0.0178074
0.017622
0.0174507
0.0172926
0.017147
0.0170132
0.0168906
0.0167785
0.0166762
0.0165834
0.0164993
0.0164237
0.016356
0.016296
0.0162433
0.0161977
0.016159
0.0161272
0.0161021
0.0160837
0.0160722
0.0160675
0.0160697
0.0160792
0.016096
0.0161205
0.0161527
0.0161931
0.0162418
0.0162992
0.0163654
0.0164406
0.0165252
0.0166192
0.0167227
0.0168359
0.0169587
0.017091
0.0172326
0.0173834
0.017543
0.0177111
0.0178869
0.0180701
0.0182597
0.0184551
0.0186551
0.0188589
0.0190653
0.0192731
0.019481
0.0196876
0.0198915
0.0200912
0.0202853
0.0204722
0.0206504
0.0208185
0.020975
0.0211185
0.0212478
0.0213616
0.0214589
0.0215387
0.0216004
0.0216432
0.0216667
0.0216707
0.0216552
0.0216203
0.0215663
0.0214939
0.0214037
0.0212966
0.0211738
0.0210365
0.020886
0.0207238
0.0205514
0.0203706
0.020183
0.0199902
0.019794
0.019596
0.0193979
0.0192013
0.0190075
0.0188181
0.0186343
0.0184572
0.018288
0.0181276
0.0179766
0.0178342
0.0177648
0.0191971
0.0190455
0.0187564
0.0184911
0.0182449
0.0180169
0.0178062
0.0176118
0.0174327
0.017268
0.0171169
0.0169784
0.0168517
0.016736
0.0166306
0.0165348
0.016448
0.0163697
0.0162993
0.0162365
0.0161809
0.0161322
0.0160902
0.0160547
0.0160257
0.0160031
0.015987
0.0159775
0.0159747
0.0159787
0.0159899
0.0160084
0.0160346
0.0160687
0.0161111
0.016162
0.0162218
0.0162906
0.0163688
0.0164566
0.0165541
0.0166614
0.0167787
0.0169058
0.0170427
0.0171892
0.017345
0.0175097
0.0176829
0.0178639
0.018052
0.0182465
0.0184464
0.0186507
0.0188582
0.0190678
0.0192781
0.0194877
0.0196953
0.0198992
0.0200979
0.0202899
0.0204736
0.0206475
0.02081
0.0209596
0.0210951
0.0212151
0.0213184
0.0214041
0.0214712
0.0215191
0.0215472
0.0215553
0.0215432
0.021511
0.0214589
0.0213876
0.0212976
0.0211899
0.0210654
0.0209255
0.0207714
0.0206047
0.0204269
0.0202397
0.0200447
0.0198436
0.0196383
0.0194304
0.0192215
0.0190133
0.0188074
0.018605
0.0184076
0.0182165
0.0180326
0.0178569
0.0176903
0.0175316
0.0174539
0.0192548
0.0190936
0.0187866
0.0185056
0.0182456
0.0180055
0.0177844
0.017581
0.0173941
0.0172228
0.0170659
0.0169224
0.0167913
0.0166718
0.0165629
0.0164638
0.0163739
0.0162925
0.016219
0.016153
0.016094
0.0160417
0.0159959
0.0159563
0.0159229
0.0158957
0.0158746
0.0158598
0.0158515
0.0158497
0.0158549
0.0158672
0.0158869
0.0159145
0.0159502
0.0159945
0.0160475
0.0161098
0.0161815
0.0162629
0.0163543
0.0164559
0.0165676
0.0166897
0.0168219
0.0169643
0.0171165
0.0172782
0.0174489
0.0176282
0.0178154
0.0180096
0.0182099
0.0184153
0.0186247
0.0188369
0.0190506
0.0192642
0.0194764
0.0196856
0.0198901
0.0200884
0.0202788
0.0204597
0.0206294
0.0207865
0.0209294
0.0210568
0.0211674
0.0212601
0.0213339
0.021388
0.0214219
0.021435
0.0214272
0.0213985
0.0213491
0.0212795
0.0211902
0.0210821
0.0209563
0.0208139
0.0206563
0.020485
0.0203014
0.0201074
0.0199046
0.0196947
0.0194796
0.019261
0.0190407
0.0188202
0.0186011
0.0183851
0.0181734