# vtk DataFile Version 2.0
insac
ASCII
DATASET STRUCTURED_GRID
DIMENSIONS 51 51 1
POINTS 2601 float
0 0 0
0.02 0 0
0.04 0 0
0.06 0 0
0.08 0 0
0.1 0 0
0.12 0 0
0.14 0 0
0.16 0 0
0.18 0 0
0.2 0 0
0.22 0 0
0.24 0 0
0.26 0 0
0.28 0 0
0.3 0 0
0.32 0 0
0.34 0 0
0.36 0 0
0.38 0 0
0.4 0 0
0.42 0 0
0.44 0 0
0.46 0 0
0.48 0 0
0.5 0 0
0.52 0 0
0.54 0 0
0.56 0 0
0.58 0 0
0.6 0 0
0.62 0 0
0.64 0 0
0.66 0 0
0.68 0 0
0.7 0 0
0.72 0 0
0.74 0 0
0.76 0 0
0.78 0 0
0.8 0 0
0.82 0 0
0.84 0 0
0.86 0 0
0.88 0 0
0.9 0 0
0.92 0 0
0.94 0 0
0.96 0 0
0.98 0 0
1 0 0
0 0.02 0
0.02 0.02 0
0.04 0.02 0
0.06 0.02 0
0.08 0.02 0
0.1 0.02 0
0.12 0.02 0
0.14 0.02 0
0.16 0.02 0
0.18 0.02 0
0.2 0.02 0
0.22 0.02 0
0.24 0.02 0
0.26 0.02 0
0.28 0.02 0
0.3 0.02 0
0.32 0.02 0
0.34 0.02 0
0.36 0.02 0
0.38 0.02 0
0.4 0.02 0
0.42 0.02 0
0.44 0.02 0
0.46 0.02 0
0.48 0.02 0
0.5 0.02 0
0.52 0.02 0
0.54 0.02 0
0.56 0.02 0
0.58 0.02 0
0.6 0.02 0
0.62 0.02 0
0.64 0.02 0
0.66 0.02 0
0.68 0.02 0
0.7 0.02 0
0.72 0.02 0
0.74 0.02 0
0.76 0.02 0
0.78 0.02 0
0.8 0.02 0
0.82 0.02 0
0.84 0.02 0
0.86 0.02 0
0.88 0.02 0
0.9 0.02 0
0.92 0.02 0
0.94 0.02 0
0.96 0.02 0
0.98 0.02 0
1 0.02 0
0 0.04 0
0.02 0.04 0
0.04 0.04 0
0.06 0.04 0
0.08 0.04 0
0.1 0.04 0
0.12 0.04 0
0.14 0.04 0
0.16 0.04 0
0.18 0.04 0
0.2 0.04 0
0.22 0.04 0
0.24 0.04 0
0.26 0.04 0
0.28 0.04 0
0.3 0.04 0
0.32 0.04 0
0.34 0.04 0
0.36 0.04 0
0.38 0.04 0
0.4 0.04 0
0.42 0.04 0
0.44 0.04 0
0.46 0.04 0
0.48 0.04 0
0.5 0.04 0
0.52 0.04 0
0.54 0.04 0
0.56 0.04 0
0.58 0.04 0
0.6 0.04 0
0.62 0.04 0
0.64 0.04 0
0.66 0.04 0
0.68 0.04 0
0.7 0.04 0
0.72 0.04 0
0.74 0.04 0
0.76 0.04 0
0.78 0.04 0
0.8 0.04 0
0.82 0.04 0
0.84 0.04 0
0.86 0.04 0
0.88 0.04 0
0.9 0.04 0
0.92 0.04 0
0.94 0.04 0
0.96 0.04 0
0.98 0.04 0
1 0.04 0
0 0.06 0
0.02 0.06 0
0.04 0.06 0
0.06 0.06 0
0.08 0.06 0
0.1 0.06 0
0.12 0.06 0
0.14 0.06 0
0.16 0.06 0
0.18 0.06 0
0.2 0.06 0
0.22 0.06 0
0.24 0.06 0
0.26 0.06 0
0.28 0.06 0
0.3 0.06 0
0.32 0.06 0
0.34 0.06 0
0.36 0.06 0
0.38 0.06 0
0.4 0.06 0
0.42 0.06 0
0.44 0.06 0
0.46 0.06 0
0.48 0.06 0
0.5 0.06 0
0.52 0.06 0
0.54 0.06 0
0.56 0.06 0
0.58 0.06 0
0.6 0.06 0
0.62 0.06 0
0.64 0.06 0
0.66 0.06 0
0.68 0.06 0
0.7 0.06 0
0.72 0.06 0
0.74 0.06 0
0.76 0.06 0
0.78 0.06 0
0.8 0.06 0
0.82 0.06 0
0.84 0.06 0
0.86 0.06 0
0.88 0.06 0
0.9 0.06 0
0.92 0.06 0
0.94 0.06 0
0.96 0.06 0
0.98 0.06 0
1 0.06 0
0 0.08 0
0.02 0.08 0
0.04 0.08 0
0.06 0.08 0
0.08 0.08 0
0.1 0.08 0
0.12 0.08 0
0.14 0.08 0
0.16 0.08 0
0.18 0.08 0
0.2 0.08 0
0.22 0.08 0
0.24 0.08 0
0.26 0.08 0
0.28 0.08 0
0.3 0.08 0
0.32 0.08 0
0.34 0.08 0
0.36 0.08 0
0.38 0.08 0
0.4 0.08 0
0.42 0.08 0
0.44 0.08 0
0.46 0.08 0
0.48 0.08 0
0.5 0.08 0
0.52 0.08 0
0.54 0.08 0
0.56 0.08 0
0.58 0.08 0
0.6 0.08 0
0.62 0.08 0
0.64 0.08 0
0.66 0.08 0
0.68 0.08 0
0.7 0.08 0
0.72 0.08 0
0.74 0.08 0
0.76 0.08 0
0.78 0.08 0
0.8 0.08 0
0.82 0.08 0
0.84 0.08 0
0.86 0.08 0
0.88 0.08 0
0.9 0.08 0
0.92 0.08 0
0.94 0.08 0
0.96 0.08 0
0.98 0.08 0
1 0.08 0
0 0.1 0
0.02 0.1 0
0.04 0.1 0
0.06 0.1 0
0.08 0.1 0
0.1 0.1 0
0.12 0.1 0
0.14 0.1 0
0.16 0.1 0
0.18 0.1 0
0.2 0.1 0
0.22 0.1 0
0.24 0.1 0
0.26 0.1 0
0.28 0.1 0
0.3 0.1 0
0.32 0.1 0
0.34 0.1 0
0.36 0.1 0
0.38 0.1 0
0.4 0.1 0
0.42 0.1 0
0.44 0.1 0
0.46 0.1 0
0.48 0.1 0
0.5 0.1 0
0.52 0.1 0
0.54 0.1 0
0.56 0.1 0
0.58 0.1 0
0.6 0.1 0
0.62 0.1 0
0.64 0.1 0
0.66 0.1 0
0.68 0.1 0
0.7 0.1 0
0.72 0.1 0
0.74 0.1 0
0.76 0.1 0
0.78 0.1 0
0.8 0.1 0
0.82 0.1 0
0.84 0.1 0
0.86 0.1 0
0.88 0.1 0
0.9 0.1 0
0.92 0.1 0
0.94 0.1 0
0.96 0.1 0
0.98 0.1 0
1 0.1 0
0 0.12 0
0.02 0.12 0
0.04 0.12 0
0.06 0.12 0
0.08 0.12 0
0.1 0.12 0
0.12 0.12 0
0.14 0.12 0
0.16 0.12 0
0.18 0.12 0
0.2 0.12 0
0.22 0.12 0
0.24 0.12 0
0.26 0.12 0
0.28 0.12 0
0.3 0.12 0
0.32 0.12 0
0.34 0.12 0
0.36 0.12 0
0.38 0.12 0
0.4 0.12 0
0.42 0.12 0
0.44 0.12 0
0.46 0.12 0
0.48 0.12 0
0.5 0.12 0
0.52 0.12 0
0.54 0.12 0
0.56 0.12 0
0.58 0.12 0
0.6 0.12 0
0.62 0.12 0
0.64 0.12 0
0.66 0.12 0
0.68 0.12 0
0.7 0.12 0
0.72 0.12 0
0.74 0.12 0
0.76 0.12 0
0.78 0.12 0
0.8 0.12 0
0.82 0.12 0
0.84 0.12 0
0.86 0.12 0
0.88 0.12 0
0.9 0.12 0
0.92 0.12 0
0.94 0.12 0
0.96 0.12 0
0.98 0.12 0
1 0.12 0
0 0.14 0
0.02 0.14 0
0.04 0.14 0
0.06 0.14 0
0.08 0.14 0
0.1 0.14 0
0.12 0.14 0
0.14 0.14 0
0.16 0.14 0
0.18 0.14 0
0.2 0.14 0
0.22 0.14 0
0.24 0.14 0
0.26 0.14 0
0.28 0.14 0
0.3 0.14 0
0.32 0.14 0
0.34 0.14 0
0.36 0.14 0
0.38 0.14 0
0.4 0.14 0
0.42 0.14 0
0.44 0.14 0
0.46 0.14 0
0.48 0.14 0
0.5 0.14 0
0.52 0.14 0
0.54 0.14 0
0.56 0.14 0
0.58 0.14 0
0.6 0.14 0
0.62 0.14 0
0.64 0.14 0
0.66 0.14 0
0.68 0.14 0
0.7 0.14 0
0.72 0.14 0
0.74 0.14 0
0.76 0.14 0
0.78 0.14 0
0.8 0.14 0
0.82 0.14 0
0.84 0.14 0
0.86 0.14 0
0.88 0.14 0
0.9 0.14 0
0.92 0.14 0
0.94 0.14 0
0.96 0.14 0
0.98 0.14 0
1 0.14 0
0 0.16 0
0.02 0.16 0
0.04 0.16 0
0.06 0.16 0
0.08 0.16 0
0.1 0.16 0
0.12 0.16 0
0.14 0.16 0
0.16 0.16 0
0.18 0.16 0
0.2 0.16 0
0.22 0.16 0
0.24 0.16 0
0.26 0.16 0
0.28 0.16 0
0.3 0.16 0
0.32 0.16 0
0.34 0.16 0
0.36 0.16 0
0.38 0.16 0
0.4 0.16 0
0.42 0.16 0
0.44 0.16 0
0.46 0.16 0
0.48 0.16 0
0.5 0.16 0
0.52 0.16 0
0.54 0.16 0
0.56 0.16 0
0.58 0.16 0
0.6 0.16 0
0.62 0.16 0
0.64 0.16 0
0.66 0.16 0
0.68 0.16 0
0.7 0.16 0
0.72 0.16 0
0.74 0.16 0
0.76 0.16 0
0.78 0.16 0
0.8 0.16 0
0.82 0.16 0
0.84 0.16 0
0.86 0.16 0
0.88 0.16 0
0.9 0.16 0
0.92 0.16 0
0.94 0.16 0
0.96 0.16 0
0.98 0.16 0
1 0.16 0
0 0.18 0
0.02 0.18 0
0.04 0.18 0
0.06 0.18 0
0.08 0.18 0
0.1 0.18 0
0.12 0.18 0
0.14 0.18 0
0.16 0.18 0
0.18 0.18 0
0.2 0.18 0
0.22 0.18 0
0.24 0.18 0
0.26 0.18 0
0.28 0.18 0
0.3 0.18 0
0.32 0.18 0
0.34 0.18 0
0.36 0.18 0
0.38 0.18 0
0.4 0.18 0
0.42 0.18 0
0.44 0.18 0
0.46 0.18 0
0.48 0.18 0
0.5 0.18 0
0.52 0.18 0
0.54 0.18 0
0.56 0.18 0
0.58 0.18 0
0.6 0.18 0
0.62 0.18 0
0.64 0.18 0
0.66 0.18 0
0.68 0.18 0
0.7 0.18 0
0.72 0.18 0
0.74 0.18 0
0.76 0.18 0
0.78 0.18 0
0.8 0.18 0
0.82 0.18 0
0.84 0.18 0
0.86 0.18 0
0.88 0.18 0
0.9 0.18 0
0.92 0.18 0
0.94 0.18 0
0.96 0.18 0
0.98 0.18 0
1 0.18 0
0 0.2 0
0.02 0.2 0
0.04 0.2 0
0.06 0.2 0
0.08 0.2 0
0.1 0.2 0
0.12 0.2 0
0.14 0.2 0
0.16 0.2 0
0.18 0.2 0
0.2 0.2 0
0.22 0.2 0
0.24 0.2 0
0.26 0.2 0
0.28 0.2 0
0.3 0.2 0
0.32 0.2 0
0.34 0.2 0
0.36 0.2 0
0.38 0.2 0
0.4 0.2 0
0.42 0.2 0
0.44 0.2 0
0.46 0.2 0
0.48 0.2 0
0.5 0.2 0
0.52 0.2 0
0.54 0.2 0
0.56 0.2 0
0.58 0.2 0
0.6 0.2 0
0.62 0.2 0
0.64 0.2 0
0.66 0.2 0
0.68 0.2 0
0.7 0.2 0
0.72 0.2 0
0.74 0.2 0
0.76 0.2 0
0.78 0.2 0
0.8 0.2 0
0.82 0.2 0
0.84 0.2 0
0.86 0.2 0
0.88 0.2 0
0.9 0.2 0
0.92 0.2 0
0.94 0.2 0
0.96 0.2 0
0.98 0.2 0
1 0.2 0
0 0.22 0
0.02 0.22 0
0.04 0.22 0
0.06 0.22 0
0.08 0.22 0
0.1 0.22 0
0.12 0.22 0
0.14 0.22 0
0.16 0.22 0
0.18 0.22 0
0.2 0.22 0
0.22 0.22 0
0.24 0.22 0
0.26 0.22 0
0.28 0.22 0
0.3 0.22 0
0.32 0.22 0
0.34 0.22 0
0.36 0.22 0
0.38 0.22 0
0.4 0.22 0
0.42 0.22 0
0.44 0.22 0
0.46 0.22 0
0.48 0.22 0
0.5 0.22 0
0.52 0.22 0
0.54 0.22 0
0.56 0.22 0
0.58 0.22 0
0.6 0.22 0
0.62 0.22 0
0.64 0.22 0
0.66 0.22 0
0.68 0.22 0
0.7 0.22 0
0.72 0.22 0
0.74 0.22 0
0.76 0.22 0
0.78 0.22 0
0.8 0.22 0
0.82 0.22 0
0.84 0.22 0
0.86 0.22 0
0.88 0.22 0
0.9 0.22 0
0.92 0.22 0
0.94 0.22 0
0.96 0.22 0
0.98 0.22 0
1 0.22 0
0 0.24 0
0.02 0.24 0
0.04 0.24 0
0.06 0.24 0
0.08 0.24 0
0.1 0.24 0
0.12 0.24 0
0.14 0.24 0
0.16 0.24 0
0.18 0.24 0
0.2 0.24 0
0.22 0.24 0
0.24 0.24 0
0.26 0.24 0
0.28 0.24 0
0.3 0.24 0
0.32 0.24 0
0.34 0.24 0
0.36 0.24 0
0.38 0.24 0
0.4 0.24 0
0.42 0.24 0
0.44 0.24 0
0.46 0.24 0
0.48 0.24 0
0.5 0.24 0
0.52 0.24 0
0.54 0.24 0
0.56 0.24 0
0.58 0.24 0
0.6 0.24 0
0.62 0.24 0
0.64 0.24 0
0.66 0.24 0
0.68 0.24 0
0.7 0.24 0
0.72 0.24 0
0.74 0.24 0
0.76 0.24 0
0.78 0.24 0
0.8 0.24 0
0.82 0.24 0
0.84 0.24 0
0.86 0.24 0
0.88 0.24 0
0.9 0.24 0
0.92 0.24 0
0.94 0.24 0
0.96 0.24 0
0.98 0.24 0
1 0.24 0
0 0.26 0
0.02 0.26 0
0.04 0.26 0
0.06 0.26 0
0.08 0.26 0
0.1 0.26 0
0.12 0.26 0
0.14 0.26 0
0.16 0.26 0
0.18 0.26 0
0.2 0.26 0
0.22 0.26 0
0.24 0.26 0
0.26 0.26 0
0.28 0.26 0
0.3 0.26 0
0.32 0.26 0
0.34 0.26 0
0.36 0.26 0
0.38 0.26 0
0.4 0.26 0
0.42 0.26 0
0.44 0.26 0
0.46 0.26 0
0.48 0.26 0
0.5 0.26 0
0.52 0.26 0
0.54 0.26 0
0.56 0.26 0
0.58 0.26 0
0.6 0.26 0
0.62 0.26 0
0.64 0.26 0
0.66 0.26 0
0.68 0.26 0
0.7 0.26 0
0.72 0.26 0
0.74 0.26 0
0.76 0.26 0
0.78 0.26 0
0.8 0.26 0
0.82 0.26 0
0.84 0.26 0
0.86 0.26 0
0.88 0.26 0
0.9 0.26 0
0.92 0.26 0
0.94 0.26 0
0.96 0.26 0
0.98 0.26 0
1 0.26 0
0 0.28 0
0.02 0.28 0
0.04 0.28 0
0.06 0.28 0
0.08 0.28 0
0.1 0.28 0
0.12 0.28 0
0.14 0.28 0
0.16 0.28 0
0.18 0.28 0
0.2 0.28 0
0.22 0.28 0
0.24 0.28 0
0.26 0.28 0
0.28 0.28 0
0.3 0.28 0
0.32 0.28 0
0.34 0.28 0
0.36 0.28 0
0.38 0.28 0
0.4 0.28 0
0.42 0.28 0
0.44 0.28 0
0.46 0.28 0
0.48 0.28 0
0.5 0.28 0
0.52 0.28 0
0.54 0.28 0
0.56 0.28 0
0.58 0.28 0
0.6 0.28 0
0.62 0.28 0
0.64 0.28 0
0.66 0.28 0
0.68 0.28 0
0.7 0.28 0
0.72 0.28 0
0.74 0.28 0
0.76 0.28 0
0.78 0.28 0
0.8 0.28 0
0.82 0.28 0
0.84 0.28 0
0.86 0.28 0
0.88 0.28 0
0.9 0.28 0
0.92 0.28 0
0.94 0.28 0
0.96 0.28 0
0.98 0.28 0
1 0.28 0
0 0.3 0
0.02 0.3 0
0.04 0.3 0
0.06 0.3 0
0.08 0.3 0
0.1 0.3 0
0.12 0.3 0
0.14 0.3 0
0.16 0.3 0
0.18 0.3 0
0.2 0.3 0
0.22 0.3 0
0.24 0.3 0
0.26 0.3 0
0.28 0.3 0
0.3 0.3 0
0.32 0.3 0
0.34 0.3 0
0.36 0.3 0
0.38 0.3 0
0.4 0.3 0
0.42 0.3 0
0.44 0.3 0
0.46 0.3 0
0.48 0.3 0
0.5 0.3 0
0.52 0.3 0
0.54 0.3 0
0.56 0.3 0
0.58 0.3 0
0.6 0.3 0
0.62 0.3 0
0.64 0.3 0
0.66 0.3 0
0.68 0.3 0
0.7 0.3 0
0.72 0.3 0
0.74 0.3 0
0.76 0.3 0
0.78 0.3 0
0.8 0.3 0
0.82 0.3 0
0.84 0.3 0
0.86 0.3 0
0.88 0.3 0
0.9 0.3 0
0.92 0.3 0
0.94 0.3 0
0.96 0.3 0
0.98 0.3 0
1 0.3 0
0 0.32 0
0.02 0.32 0
0.04 0.32 0
0.06 0.32 0
0.08 0.32 0
0.1 0.32 0
0.12 0.32 0
0.14 0.32 0
0.16 0.32 0
0.18 0.32 0
0.2 0.32 0
0.22 0.32 0
0.24 0.32 0
0.26 0.32 0
0.28 0.32 0
0.3 0.32 0
0.32 0.32 0
0.34 0.32 0
0.36 0.32 0
0.38 0.32 0
0.4 0.32 0
0.42 0.32 0
0.44 0.32 0
0.46 0.32 0
0.48 0.32 0
0.5 0.32 0
0.52 0.32 0
0.54 0.32 0
0.56 0.32 0
0.58 0.32 0
0.6 0.32 0
0.62 0.32 0
0.64 0.32 0
0.66 0.32 0
0.68 0.32 0
0.7 0.32 0
0.72 0.32 0
0.74 0.32 0
0.76 0.32 0
0.78 0.32 0
0.8 0.32 0
0.82 0.32 0
0.84 0.32 0
0.86 0.32 0
0.88 0.32 0
0.9 0.32 0
0.92 0.32 0
0.94 0.32 0
0.96 0.32 0
0.98 0.32 0
1 0.32 0
0 0.34 0
0.02 0.34 0
0.04 0.34 0
0.06 0.34 0
0.08 0.34 0
[...]
POINT_DATA 2601
SCALARS pressure float 1
LOOKUP_TABLE default
-1.75241e-42
-2.16401e-42
-1.71632e-42
-8.02771e-43
-2.70294e-43
-7.1336e-44
-1.54912e-44
-2.85558e-45
-4.56542e-46
-6.4304e-47
-8.07385e-48
-9.11943e-49
-9.33306e-50
-8.70473e-51
-7.43348e-52
-5.83439e-53
-4.22198e-54
-2.82057e-55
-1.78323e-56
-1.01797e-57
2.76629e-58
-4.05029e-58
-2.52386e-58
-3.20803e-58
-1.50118e-57
-3.9063e-58
4.13085e-57
7.94763e-57
4.42498e-57
-4.66057e-57
-8.5254e-57
-4.35894e-57
1.59087e-56
2.63528e-55
3.89016e-54
5.39294e-53
6.90728e-52
8.13235e-51
8.76699e-50
8.61355e-49
7.66842e-48
6.14179e-47
4.38521e-46
2.75851e-45
1.50505e-44
6.97053e-44
2.65629e-43
7.93363e-43
1.70535e-42
2.16032e-42
1.75456e-42
-2.25717e-41
-3.09923e-41
-2.50359e-41
-1.19846e-41
-4.14212e-42
-1.12441e-42
-2.51541e-43
-4.78283e-44
-7.89642e-45
-1.14971e-45
-1.49365e-46
-1.74723e-47
-1.85357e-48
-1.79358e-49
-1.59046e-50
-1.29742e-51
-9.76673e-53
-6.79774e-54
-4.43765e-55
-2.65243e-56
2.91462e-57
-5.62424e-57
-3.83444e-57
-5.15545e-57
-2.08986e-56
-4.18651e-57
5.99296e-56
1.12757e-55
6.22136e-56
-6.57275e-56
-1.20607e-55
-5.22108e-56
3.97826e-55
6.2725e-54
8.95844e-53
1.19508e-51
1.47314e-50
1.67067e-49
1.73639e-48
1.64621e-47
1.41547e-46
1.09592e-45
7.57147e-45
4.61333e-44
2.4408e-43
1.09761e-42
4.06754e-42
1.1838e-41
2.48682e-41
3.09348e-41
2.25989e-41
-4.69994e-40
-6.45888e-40
-5.28648e-40
-2.57391e-40
-9.06972e-41
-2.51437e-41
-5.75199e-42
-1.11965e-42
-1.89424e-43
-2.82872e-44
-3.77231e-45
-4.53328e-46
-4.94439e-47
-4.92274e-48
-4.49498e-49
-3.77871e-50
-2.93378e-51
-2.10826e-52
-1.41604e-53
-8.76513e-55
3.57202e-56
-1.15305e-55
-8.3453e-56
-1.15632e-55
-4.25467e-55
-6.53365e-56
1.25867e-54
2.33008e-54
1.2773e-54
-1.35189e-54
-2.47881e-54
-8.0441e-55
1.26919e-53
1.92966e-52
2.67989e-51
3.46857e-50
4.15e-49
4.57174e-48
4.61918e-47
4.26055e-46
3.56685e-45
2.69101e-44
1.81314e-43
1.07836e-42
5.57449e-42
2.45201e-41
8.8998e-41
2.54112e-40
5.24953e-40
6.44609e-40
4.70558e-40
-9.4323e-39
-1.29707e-38
-1.07514e-38
-5.32166e-39
-1.91091e-39
-5.40751e-40
-1.26438e-40
-2.51831e-41
-4.36364e-42
-6.67986e-43
-9.13909e-44
-1.12762e-44
-1.26372e-45
-1.29377e-46
-1.21566e-47
-1.05243e-48
-8.42132e-50
-6.24298e-51
-4.31774e-52
-2.76369e-53
-1.82431e-56
-2.29787e-54
-1.74819e-54
-2.47712e-54
-8.33746e-54
-8.77681e-55
2.54503e-53
4.63771e-53
2.52636e-53
-2.67721e-53
-4.88526e-53
-7.33018e-54
3.86225e-52
5.67457e-51
7.66025e-50
9.62509e-49
1.11855e-47
1.19774e-46
1.1772e-45
1.05701e-44
8.62095e-44
6.34137e-43
4.16917e-42
2.42166e-41
1.22377e-40
5.26793e-40
1.87365e-39
5.25106e-39
1.0673e-38
1.29434e-38
9.44358e-39
-1.82073e-37
-2.50484e-37
-2.10182e-37
-1.05721e-37
-3.86706e-38
-1.1166e-38
-2.6675e-39
-5.43419e-40
-9.64018e-41
-1.51212e-41
-2.12154e-42
-2.6864e-43
-3.09195e-44
-3.25332e-45
-3.14403e-46
-2.80147e-47
-2.30892e-48
-1.76453e-49
-1.25696e-50
-8.31054e-52
-2.16645e-53
-4.45984e-53
-3.51911e-53
-5.0658e-53
-1.56909e-52
-8.64552e-54
4.94427e-52
8.87206e-52
4.8036e-52
-5.09217e-52
-9.18812e-52
1.19624e-52
1.12079e-50
1.59382e-49
2.09112e-48
2.55214e-47
2.88243e-46
3.00183e-45
2.87146e-44
2.51117e-43
1.99626e-42
1.43231e-41
9.19272e-41
5.21699e-40
2.57828e-39
1.08658e-38
3.78854e-38
1.0426e-37
2.08581e-37
2.49923e-37
1.8229e-37
-3.38025e-36
-4.65134e-36
-3.94941e-36
-2.01799e-36
-7.51638e-37
-2.21374e-37
-5.4014e-38
-1.12506e-38
-2.04256e-39
-3.28162e-40
-4.71959e-41
-6.13048e-42
-7.2433e-43
-7.82913e-44
-7.77778e-45
-7.12916e-46
-6.04856e-47
-4.76216e-48
-3.49382e-49
-2.38392e-50
-1.00318e-51
-8.47858e-52
-6.8096e-52
-9.8982e-52
-2.83559e-51
-8.18975e-54
9.22795e-51
1.63115e-50
8.77986e-51
-9.29686e-51
-1.6418e-50
9.57794e-51
3.10273e-49
4.27587e-48
5.45314e-47
6.46792e-46
7.10337e-45
7.19841e-44
6.70499e-43
5.71374e-42
4.42915e-41
3.10113e-40
1.94376e-39
1.0782e-38
5.21315e-38
2.15175e-37
7.35736e-37
1.98892e-36
3.91801e-36
4.64027e-36
3.38425e-36
-6.03511e-35
-8.3046e-35
-7.13254e-35
-3.70078e-35
-1.40315e-35
-4.21383e-36
-1.04974e-36
-2.23481e-37
-4.15081e-38
-6.82811e-39
-1.00624e-39
-1.34025e-40
-1.62489e-41
-1.80339e-42
-1.84081e-43
-1.73484e-44
-1.51437e-45
-1.2276e-46
-9.27371e-48
-6.52521e-49
-3.42834e-50
-1.59094e-50
-1.2673e-50
-1.84908e-50
-4.91972e-50
2.53606e-51
1.65445e-49
2.88177e-49
1.54252e-49
-1.6277e-49
-2.76626e-49
3.68472e-49
8.19691e-48
1.09581e-46
1.35877e-45
1.56704e-44
1.67437e-43
1.65189e-42
1.49897e-41
1.24525e-40
9.41664e-40
6.43649e-39
3.94145e-38
2.13777e-37
1.01159e-36
4.09081e-36
1.3722e-35
3.6452e-35
7.07331e-35
8.28363e-35
6.04224e-35
-1.03611e-33
-1.42544e-33
-1.23789e-33
-6.51992e-34
-2.51553e-34
-7.70052e-35
-1.95798e-35
-4.25912e-36
-8.09023e-37
-1.36218e-37
-2.05618e-38
-2.80725e-39
-3.49094e-40
-3.97662e-41
-4.16886e-42
-4.03765e-43
-3.62447e-44
-3.0235e-45
-2.35102e-46
-1.70473e-47
-1.01765e-48
-2.97338e-49
-2.27016e-49
-3.30415e-49
-8.193e-49
8.88333e-50
2.84897e-48
4.89168e-48
2.60481e-48
-2.72887e-48
-4.3361e-48
1.13803e-47
2.0671e-46
2.68299e-45
3.23565e-44
3.63014e-43
3.77554e-42
3.62802e-41
3.20863e-40
2.5996e-39
1.91849e-38
1.28065e-37
7.66448e-37
4.06616e-36
1.88376e-35
7.46603e-35
2.45767e-34
6.41779e-34
1.22715e-33
1.42163e-33
1.03733e-33
-1.71017e-32
-2.35181e-32
-2.06435e-32
-1.10334e-32
-4.3305e-33
-1.35087e-33
-3.50476e-34
-7.78733e-35
-1.51232e-35
-2.60544e-36
-4.0271e-37
-5.63368e-38
-7.18317e-39
-8.39506e-40
-9.03509e-41
-8.98908e-42
-8.29412e-43
-7.11632e-44
-5.69359e-45
-4.25188e-46
-2.7585e-47
-5.58527e-48
-3.91931e-48
-5.64974e-48
-1.3093e-47
2.19946e-48
4.71118e-47
7.9765e-47
4.22773e-47
-4.37085e-47
-6.15704e-47
3.11293e-46
4.97712e-45
6.27658e-44
7.36471e-43
8.04178e-42
8.14499e-41
7.62663e-40
6.5766e-39
5.19854e-38
3.74552e-37
2.44263e-36
1.42923e-35
7.419e-35
3.36608e-34
1.30794e-33
4.22657e-33
1.08531e-32
2.04565e-32
2.34516e-32
1.71219e-32
-2.71337e-31
-3.72906e-31
-3.3073e-31
-1.79319e-31
-7.1576e-32
-2.2746e-32
-6.01978e-33
-1.36586e-33
-2.71114e-34
-4.77775e-35
-7.55931e-36
-1.08323e-36
-1.41565e-37
-1.69684e-38
-1.87408e-39
-1.91454e-40
-1.81497e-41
-1.60092e-42
-1.31737e-43
-1.01266e-44
-6.97474e-46
-1.06142e-46
-6.53403e-47
-9.24677e-47
-2.00725e-46
4.62696e-47
7.47977e-46
1.2492e-45
6.59528e-46
-6.66408e-46
-7.43395e-46
7.81768e-45
1.14438e-43
1.40308e-42
1.60241e-41
1.70372e-40
1.68116e-39
1.53455e-38
1.29074e-37
9.95802e-37
7.00703e-36
4.4658e-35
2.5555e-34
1.29837e-33
5.77099e-33
2.19911e-32
6.97823e-32
1.76259e-31
3.276e-31
3.71794e-31
2.71659e-31
-4.13735e-30
-5.68127e-30
-5.08934e-30
-2.79839e-30
-1.13563e-30
-3.67554e-31
-9.92007e-32
-2.29785e-32
-4.66056e-33
-8.39892e-34
-1.35989e-34
-1.99548e-35
-2.67212e-36
-3.28376e-37
-3.72047e-38
-3.90124e-39
-3.79825e-40
-3.4428e-41
-2.91261e-42
-2.30344e-43
-1.66227e-44
-2.04412e-45
-1.05491e-45
-1.44896e-45
-2.95109e-45
8.74474e-46
1.13987e-44
1.87849e-44
9.8903e-45
-9.61391e-45
-6.09121e-45
1.83303e-43
2.51302e-42
2.99725e-41
3.33302e-40
3.45205e-39
3.32001e-38
2.95534e-37
2.42557e-36
1.82707e-35
1.256e-34
7.82553e-34
4.38084e-33
2.17915e-32
9.49153e-32
3.54805e-31
1.1059e-30
2.74852e-30
5.03902e-30
5.66343e-30
4.14229e-30
-6.06136e-29
-8.31445e-29
-7.52042e-29
-4.1923e-29
-1.72924e-29
-5.69868e-30
-1.56812e-30
-3.70734e-31
-7.68143e-32
-1.41524e-32
-2.3443e-33
-3.52159e-34
-4.83051e-35
-6.08418e-36
-7.06909e-37
-7.60574e-38
-7.60209e-39
-7.07803e-40
-6.15383e-41
-5.00471e-42
-3.75508e-43
-3.97319e-44
-1.65603e-44
-2.17445e-44
-4.15926e-44
1.52141e-44
1.66691e-43
2.71163e-43
1.42615e-43
-1.29881e-43
2.38345e-44
4.04861e-42
5.27085e-41
6.11856e-40
6.62761e-39
6.68934e-38
6.27284e-37
5.4474e-36
4.3641e-35
3.21057e-34
2.15689e-33
1.31413e-32
7.19904e-32
3.50699e-31
1.49727e-30
5.492e-30
1.68192e-29
4.11424e-29
7.44274e-29
8.287e-29
6.0687e-29
-8.5296e-28
-1.16853e-27
-1.06683e-27
-6.02761e-28
-2.52647e-28
-8.47549e-29
-2.3773e-29
-5.73511e-30
-1.21363e-30
-2.28544e-31
-3.87215e-32
-5.95316e-33
-8.36231e-34
-1.0792e-34
-1.28548e-35
-1.41864e-36
-1.4552e-37
-1.39121e-38
-1.24258e-39
-1.03875e-40
-8.06575e-42
-7.72876e-43
-2.54141e-43
-3.12631e-43
-5.61727e-43
2.46781e-43
2.33837e-42
3.75636e-42
1.97859e-42
-1.61158e-42
2.67252e-42
8.46614e-41
1.05593e-39
1.19358e-38
1.25984e-37
1.23963e-36
1.13384e-35
9.60905e-35
7.51667e-34
5.40251e-33
3.54795e-32
2.11446e-31
1.13382e-30
5.41061e-30
2.26485e-29
8.15383e-29
2.45415e-28
5.91029e-28
1.05532e-27
1.16448e-27
8.54017e-28
-1.15255e-26
-1.57661e-26
-1.45239e-26
-8.31486e-27
-3.54066e-27
-1.20885e-27
-3.45552e-28
-8.50467e-29
-1.83769e-29
-3.53641e-30
-6.12693e-31
-9.63841e-32
-1.38611e-32
-1.83242e-33
-2.23699e-34
-2.53147e-35
-2.66404e-36
-2.61425e-37
-2.39787e-38
-2.05966e-39
-1.65028e-40
-1.48918e-41
-3.83778e-42
-4.30872e-42
-7.26631e-42
3.75967e-42
3.14563e-41
4.99208e-41
2.6438e-41
-1.76131e-41
8.23661e-41
1.68118e-39
2.02045e-38
2.22484e-37
2.28915e-36
2.19666e-35
1.9604e-34
1.62188e-33
1.23919e-32
8.70392e-32
5.58924e-31
3.25911e-30
1.71105e-29
8.00046e-29
3.28431e-28
1.16081e-27
3.43459e-27
8.14561e-27
1.43601e-26
1.57089e-26
1.15403e-26
-1.4949e-25
-2.04141e-25
-1.89694e-25
-1.1001e-25
-4.75802e-26
-1.65297e-26
-4.8144e-27
-1.20862e-27
-2.66621e-28
-5.24207e-29
-9.28524e-30
-1.49426e-30
-2.19956e-31
-2.97788e-32
-3.72486e-33
-4.32112e-34
-4.66393e-35
-4.69632e-36
-4.42221e-37
-3.90151e-38
-3.21969e-39
-2.81442e-40
-5.74296e-41
-5.69775e-41
-8.99866e-41
5.40435e-41
4.05621e-40
6.36261e-40
3.40814e-40
-1.50534e-40
1.94407e-39
3.17599e-38
3.69216e-37
3.96227e-36
3.9754e-35
3.72157e-34
3.24169e-33
2.61893e-32
1.95496e-31
1.34227e-30
8.43039e-30
4.81089e-29
2.47348e-28
1.13348e-27
4.56431e-27
1.58413e-26
4.60875e-26
1.07668e-25
1.8746e-25
2.03369e-25
1.49689e-25
-1.86043e-24
-2.53565e-24
-2.37594e-24
-1.39545e-24
-6.12886e-25
-2.16614e-25
-6.42725e-26
-1.64552e-26
-3.70529e-27
-7.4417e-28
-1.34738e-28
-2.21775e-29
-3.34077e-30
-4.6309e-31
-5.93375e-32
-7.05475e-33
-7.80743e-34
-8.06466e-35
-7.79357e-36
-7.06007e-37
-5.99333e-38
-5.1751e-39
-8.56877e-40
-7.2402e-40
-1.06637e-39
7.35131e-40
5.01144e-39
7.77486e-39
4.24971e-39
-4.63816e-40
4.00459e-38
5.71408e-37
6.44284e-36
6.74089e-35
6.59719e-34
6.02696e-33
5.12553e-32
4.04475e-31
2.95066e-30
1.98088e-29
1.21713e-28
6.79901e-28
3.4241e-27
1.53814e-26
6.07694e-26
2.07153e-25
5.92736e-25
1.36435e-24
2.34672e-24
2.52567e-24
1.86303e-24
-2.22061e-23
-3.02002e-23
-2.85261e-23
-1.69635e-23
-7.56426e-24
-2.71936e-24
-8.21863e-25
-2.14556e-25
-4.93069e-26
-1.01142e-26
-1.87159e-27
-3.15024e-28
-4.85536e-29
-6.8897e-30
-9.04133e-31
-1.10142e-31
-1.24951e-32
-1.32366e-33
-1.31242e-34
-1.22037e-35
-1.06476e-36
-9.20205e-38
-1.2794e-38
-8.86197e-39
-1.20869e-38
9.4807e-39
5.92964e-38
9.10615e-38
5.14549e-38
1.90226e-38
7.52139e-37
9.79665e-36
1.07339e-34
1.09528e-33
1.04594e-32
9.32768e-32
7.74697e-31
5.97312e-30
4.25941e-29
2.79658e-28
1.68142e-27
9.19621e-27
4.5375e-26
1.99847e-25
7.7482e-25
2.5947e-24
7.30348e-24
1.65675e-23
2.81598e-23
3.00769e-23
2.22392e-23
-2.54088e-22
-3.44732e-22
-3.28145e-22
-1.97529e-22
-8.94109e-23
-3.26902e-23
-1.0062e-23
-2.67812e-24
-6.28041e-25
-1.31561e-25
-2.48772e-26
-4.28134e-27
-6.75042e-28
-9.8038e-29
-1.31738e-29
-1.64402e-30
-1.91145e-31
-2.0761e-32
-2.11146e-33
-2.01478e-34
-1.80559e-35
-1.5754e-36
-1.91133e-37
-1.04868e-37
-1.3099e-37
1.16064e-37
6.71579e-37
1.02206e-36
6.08147e-37
6.28489e-37
1.3134e-35
1.60102e-34
1.70694e-33
1.69925e-32
1.58383e-31
1.37918e-30
1.11896e-29
8.43156e-29
5.87868e-28
3.77564e-27
2.22178e-26
1.18999e-25
5.75363e-25
2.48504e-24
9.45657e-24
3.11159e-23
8.61761e-23
1.92699e-22
3.23746e-22
3.43279e-22
2.54497e-22
-2.78562e-21
-3.76945e-21
-3.61473e-21
-2.2021e-21
-1.01166e-21
-3.76122e-22
-1.17889e-22
-3.19873e-23
-7.65381e-24
-1.63713e-24
-3.16299e-25
-5.56502e-26
-8.97489e-27
-1.33386e-27
-1.83501e-28
-2.34549e-29
-2.79427e-30
-3.1111e-31
-3.24477e-32
-3.17648e-33
-2.92259e-34
-2.58896e-35
-2.84551e-36
-1.20621e-36
-1.3571e-36
1.34976e-36
7.27672e-36
1.09926e-35
7.06271e-36
1.34744e-35
2.15371e-34
2.49417e-33
2.59019e-32
2.51637e-31
2.28991e-30
1.94757e-29
1.54392e-28
1.13722e-27
7.75416e-27
4.87269e-26
2.80688e-25
1.4725e-24
6.97784e-24
2.95598e-23
1.10426e-22
3.57077e-22
9.73222e-22
2.14568e-21
3.56419e-21
3.75312e-21
2.79053e-21
-2.92441e-20
-3.94592e-20
-3.81087e-20
-2.34904e-20
-1.09511e-20
-4.13968e-21
-1.32114e-21
-3.654e-22
-8.92013e-23
-1.94805e-23
-3.84517e-24
-6.91555e-25
-1.14064e-25
-1.73457e-26
-2.4427e-27
-3.19739e-28
-3.90243e-29
-4.45306e-30
-4.76187e-31
-4.78147e-32
-4.515e-33
-4.0754e-34
-4.19315e-35
-1.35845e-35
-1.34445e-35
1.49165e-35
7.53878e-35
1.13317e-34
8.11827e-35
2.42377e-34
3.33462e-33
3.70355e-32
3.74922e-31
3.55562e-30
3.15983e-29
2.62549e-28
2.03416e-27
1.46495e-26
9.77055e-26
6.00839e-25
3.38872e-24
1.74153e-23
8.08972e-23
3.36179e-22
1.23305e-21
3.9191e-21
1.05138e-20
2.28595e-20
3.75532e-20
3.92845e-20
2.93013e-20
-2.93809e-19
-3.95202e-19
-3.84273e-19
-2.3962e-19
-1.13344e-19
-4.35592e-20
-1.41534e-20
-3.98994e-21
-9.9367e-22
-2.21546e-22
-4.46732e-23
-8.21227e-24
-1.38518e-24
-2.15508e-25
-3.10628e-26
-4.1633e-27
-5.20498e-28
-6.08627e-29
-6.6718e-30
-6.87014e-31
-6.65604e-32
-6.13607e-33
-6.06834e-34
-1.51137e-34
-1.27485e-34
1.5666e-34
7.46369e-34
1.1203e-33
9.29613e-34
3.91257e-33
4.88998e-32
5.24037e-31
5.17449e-30
4.79171e-29
4.1596e-28
3.3773e-27
2.55788e-26
1.80147e-25
1.17547e-24
7.07508e-24
3.90753e-23
1.96756e-22
8.96051e-22
3.65334e-21
1.31585e-20
4.11143e-20
1.08585e-19
2.32871e-19
3.78437e-19
3.93427e-19
2.94455e-19
-2.82298e-18
-3.7844e-18
-3.70359e-18
-2.33583e-18
-1.12092e-18
-4.37915e-19
-1.44859e-19
-4.16211e-20
-1.0574e-20
-2.40678e-21
-4.9575e-22
-9.31446e-23
-1.60653e-23
-2.55698e-24
-3.77192e-25
-5.17592e-26
-6.62765e-27
-7.9404e-28
-8.92161e-29
-9.41966e-30
-9.36149e-31
-8.82717e-32
-8.56044e-33
-1.67657e-33
-1.15967e-33
1.56331e-33
7.05773e-33
1.06355e-32
1.06454e-32
5.82286e-32
6.8031e-31
7.0632e-30
6.80615e-29
6.1558e-28
5.22107e-27
4.14328e-26
3.06817e-25
2.11356e-24
1.34946e-23
7.95121e-23
4.30094e-22
2.12218e-21
9.47648e-21
3.79126e-20
1.3411e-19
4.11998e-19
1.07137e-18
2.26681e-18
3.64506e-18
3.76729e-18
2.83005e-18
-2.59208e-17
-3.46224e-17
-3.4092e-17
-2.17433e-17
-1.05845e-17
-4.20331e-18
-1.41548e-18
-4.14499e-19
-1.07422e-19
-2.49604e-20
-5.25183e-21
-1.00849e-21
-1.77857e-22
-2.89578e-23
-4.37151e-24
-6.14116e-25
-8.0533e-26
-9.88469e-27
-1.13821e-27
-1.23205e-28
-1.25581e-29
-1.2123e-30
-1.16966e-31
-1.86786e-32
-1.01648e-32
1.48164e-32
6.37153e-32
9.71633e-32
1.21881e-31
8.09365e-31
8.98691e-30
9.06423e-29
8.52715e-28
7.53442e-27
6.24504e-26
4.8448e-25
3.50846e-24
2.36437e-23
1.47739e-22
8.52281e-22
4.51576e-21
2.18372e-20
9.56264e-20
3.75444e-19
1.30449e-18
3.94074e-18
1.00917e-17
2.10691e-17
3.3532e-17
3.44667e-17
2.59956e-17
-2.2727e-16
-3.02379e-16
-2.99486e-16
-1.9312e-16
-9.53553e-17
-3.84907e-17
-1.31953e-17
-3.93811e-18
-1.04112e-18
-2.46959e-19
-5.3078e-20
-1.04168e-20
-1.87845e-21
-3.12853e-22
-4.83302e-23
-6.95042e-24
-9.33384e-25
-1.17361e-25
-1.38487e-26
-1.5367e-27
-1.60627e-28
-1.58846e-29
-1.54024e-30
-2.09576e-31
-8.65172e-32
1.33275e-31
5.48994e-31
8.5713e-31
1.3888e-30
1.05785e-29
1.12755e-28
1.10689e-27
1.01695e-26
8.78028e-26
7.11367e-25
5.39601e-24
3.82205e-23
2.52017e-22
1.54136e-21
8.70698e-21
4.51947e-20
2.14217e-19
9.20017e-19
3.54521e-18
1.21005e-17
3.59499e-17
9.06747e-17
1.86836e-16
2.9438e-16
3.01045e-16
2.28033e-16
-1.90113e-15
-2.51883e-15
-2.50848e-15
-1.6352e-15
-8.18899e-16
-3.35986e-16
-1.17257e-16
-3.56671e-17
-9.61922e-18
-2.32937e-18
-5.11414e-19
-1.0258e-19
-1.89146e-20
-3.22244e-21
-5.09419e-22
-7.49953e-23
-1.03133e-23
-1.32838e-24
-1.60624e-25
-1.82699e-26
-1.95825e-27
-1.9846e-28
-1.94743e-29
-2.36127e-30
-7.23867e-31
1.13667e-30
4.51484e-30
7.33704e-30
1.56289e-29
1.30481e-28
1.34351e-27
1.28539e-26
1.15368e-25
9.73522e-25
7.71109e-24
5.7202e-23
3.96359e-22
2.55753e-21
1.53127e-20
8.47114e-20
4.30808e-19
2.00167e-18
8.4322e-18
3.18939e-17
1.0695e-16
3.12523e-16
7.76486e-16
1.57935e-15
2.46419e-15
2.50814e-15
1.90864e-15
-1.51585e-14
-1.99934e-14
-2.00143e-14
-1.31869e-14
-6.69765e-15
-2.79315e-15
-9.92383e-16
-3.07676e-16
-8.46545e-17
-2.09293e-17
-4.69414e-18
-9.62365e-19
-1.81452e-19
-3.16238e-20
-5.11598e-21
-7.71012e-22
-1.08579e-22
-1.43261e-23
-1.77507e-24
-2.0696e-25
-2.27462e-26
-2.3631e-27
-2.35771e-28
-2.6512e-29
-6.05385e-30
9.1791e-30
3.5455e-29
6.13351e-29
1.72155e-28
1.52163e-27
1.51968e-26
1.41836e-25
1.24397e-24
1.02615e-23
7.94776e-23
5.76672e-22
3.90955e-21
2.46898e-20
1.4473e-19
7.84195e-19
3.90779e-18
1.78002e-17
7.35558e-17
2.73113e-16
8.99843e-16
2.58656e-15
6.33131e-15
1.27141e-14
1.96492e-14
1.9914e-14
1.52293e-14
-1.15088e-13
-1.51067e-13
-1.51954e-13
-1.0118e-13
-5.21173e-14
-2.20927e-14
-7.99155e-15
-2.5256e-15
-7.08999e-16
-1.78976e-16
-4.10116e-17
-8.59453e-18
-1.65717e-18
-2.95471e-19
-4.89195e-20
-7.54769e-21
-1.08852e-21
-1.4713e-22
-1.86812e-23
-2.23271e-24
-2.51626e-25
-2.68041e-26
-2.72776e-27
-2.93722e-28
-5.15444e-29
7.00448e-29
2.66198e-28
5.04426e-28
1.84019e-27
1.67896e-26
1.63077e-25
1.48588e-24
1.27374e-23
1.02732e-22
7.78181e-22
5.52361e-21
3.66439e-20
2.2652e-19
1.30019e-18
6.90071e-18
3.36982e-17
1.50494e-16
6.10084e-16
2.22386e-15
7.19978e-15
2.03597e-14
4.91042e-14
9.7372e-14
1.491e-13
1.50527e-13
1.15728e-13
-8.311e-13
-1.08532e-12
-1.09657e-12
-7.37804e-13
-3.85417e-13
-1.6608e-13
-6.11701e-14
-1.97082e-14
-5.64555e-15
-1.45532e-15
-3.4075e-16
-7.30024e-17
-1.43966e-17
-2.62634e-18
-4.45058e-19
-7.03058e-20
-1.03848e-20
-1.43806e-21
-1.87128e-22
-2.29276e-23
-2.64983e-24
-2.89489e-25
-3.0115e-26
-3.17974e-27
-4.52785e-28
5.03559e-28
1.91526e-27
4.10915e-27
1.89462e-26
1.75291e-25
1.65886e-24
1.47635e-23
1.23726e-22
9.75871e-22
7.23067e-21
5.02162e-20
3.26034e-19
1.97303e-18
1.10902e-17
5.76616e-17
2.75956e-16
1.20839e-15
4.80599e-15
1.71998e-14
5.47211e-14
1.52245e-13
3.61845e-13
7.08663e-13
1.07544e-12
1.08206e-12
8.36651e-13
-5.70179e-12
-7.40494e-12
-7.51231e-12
-5.1068e-12
-2.70551e-12
-1.18521e-12
-4.44544e-13
-1.46036e-13
-4.26948e-14
-1.1241e-14
-2.68982e-15
-5.89228e-16
-1.18865e-16
-2.219e-17
-3.84936e-18
-6.22689e-19
-9.42153e-20
-1.33685e-20
-1.78304e-21
-2.23995e-22
-2.65522e-23
-2.97572e-24
-3.16926e-25
-3.33627e-26
-4.10971e-27
3.39396e-27
1.32553e-26
3.32986e-26
1.86749e-25
1.73091e-24
1.59796e-23
1.38972e-22
1.13884e-21
8.78564e-21
6.36855e-20
4.32803e-19
2.75046e-18
1.62964e-17
8.97104e-17
4.56971e-16
2.14345e-15
9.20367e-15
3.59148e-14
1.26201e-13
3.9459e-13
1.08022e-12
2.53031e-12
4.89522e-12
7.36465e-12
7.38853e-12
5.74771e-12
-3.7114e-11
-4.79169e-11
-4.87914e-11
-3.35073e-11
-1.8004e-11
-8.01916e-12
-3.06352e-12
-1.02635e-12
-3.06305e-13
-8.23868e-14
-2.01517e-14
-4.51466e-15
-9.31825e-16
-1.78051e-16
-3.1625e-17
-5.23975e-18
-8.12262e-19
-1.18122e-19
-1.61517e-20
-2.08088e-21
-2.53052e-22
-2.9101e-23
-3.17681e-24
-3.37185e-25
-3.81114e-26
2.12636e-26
8.87295e-26
2.68389e-25
1.75377e-24
1.61519e-23
1.45594e-22
1.23777e-21
9.92039e-21
7.48677e-20
5.31018e-19
3.53187e-18
2.19718e-17
1.27472e-16
6.8731e-16
3.43029e-15
1.5771e-14
6.6407e-14
2.54264e-13
8.77302e-13
2.69595e-12
7.26257e-12
1.67684e-11
3.20521e-11
4.78197e-11
4.78613e-11
3.74761e-11
-2.28886e-10
-2.93652e-10
-2.9999e-10
-2.08105e-10
-1.13415e-10
-5.13709e-11
-1.99929e-11
-6.83259e-12
-2.08212e-12
-5.72269e-13
-1.43123e-13
-3.28016e-14
-6.92886e-15
-1.35548e-15
-2.46577e-16
-4.18551e-17
-6.64949e-18
-9.91325e-19
-1.39008e-19
-1.83719e-20
-2.29275e-21
-2.70662e-22
-3.03138e-23
-3.26843e-24
-3.5465e-25
1.21805e-25
5.7852e-25
2.14087e-24
1.56298e-23
1.4227e-22
1.25299e-21
1.04163e-20
8.16654e-20
6.0302e-19
4.18563e-18
2.72495e-17
1.65967e-16
9.42919e-16
4.98013e-15
2.43548e-14
1.0976e-13
4.53242e-13
1.70288e-12
5.76961e-12
1.74268e-11
4.62009e-11
1.0516e-10
1.98641e-10
2.93991e-10
2.93723e-10
2.31604e-10
-1.33533e-09
-1.70165e-09
-1.74328e-09
-1.22147e-09
-6.75273e-10
-3.11102e-10
-1.23381e-10
-4.30253e-11
-1.3392e-11
-3.76249e-12
-9.62463e-13
-2.2573e-13
-4.88159e-14
-9.78054e-15
-1.82282e-15
-3.17107e-16
-5.16483e-17
-7.89657e-18
-1.13597e-18
-1.54078e-19
-1.97411e-20
-2.39345e-21
-2.75262e-22
-3.03001e-23
-3.2539e-24
6.14734e-25