# vtk DataFile Version 2.0
insac
ASCII
DATASET STRUCTURED_GRID
DIMENSIONS 51 51 1
POINTS 2601 float
0 0 0
0.02 0 0
0.04 0 0
0.06 0 0
0.08 0 0
0.1 0 0
0.12 0 0
0.14 0 0
0.16 0 0
0.18 0 0
0.2 0 0
0.22 0 0
0.24 0 0
0.26 0 0
0.28 0 0
0.3 0 0
0.32 0 0
0.34 0 0
0.36 0 0
0.38 0 0
0.4 0 0
0.42 0 0
0.44 0 0
0.46 0 0
0.48 0 0
0.5 0 0
0.52 0 0
0.54 0 0
0.56 0 0
0.58 0 0
0.6 0 0
0.62 0 0
0.64 0 0
0.66 0 0
0.68 0 0
0.7 0 0
0.72 0 0
0.74 0 0
0.76 0 0
0.78 0 0
0.8 0 0
0.82 0 0
0.84 0 0
0.86 0 0
0.88 0 0
0.9 0 0
0.92 0 0
0.94 0 0
0.96 0 0
0.98 0 0
1 0 0
0 0.02 0
0.02 0.02 0
0.04 0.02 0
0.06 0.02 0
0.08 0.02 0
0.1 0.02 0
0.12 0.02 0
0.14 0.02 0
0.16 0.02 0
0.18 0.02 0
0.2 0.02 0
0.22 0.02 0
0.24 0.02 0
0.26 0.02 0
0.28 0.02 0
0.3 0.02 0
0.32 0.02 0
0.34 0.02 0
0.36 0.02 0
0.38 0.02 0
0.4 0.02 0
0.42 0.02 0
0.44 0.02 0
0.46 0.02 0
0.48 0.02 0
0.5 0.02 0
0.52 0.02 0
0.54 0.02 0
0.56 0.02 0
0.58 0.02 0
0.6 0.02 0
0.62 0.02 0
0.64 0.02 0
0.66 0.02 0
0.68 0.02 0
0.7 0.02 0
0.72 0.02 0
0.74 0.02 0
0.76 0.02 0
0.78 0.02 0
0.8 0.02 0
0.82 0.02 0
0.84 0.02 0
0.86 0.02 0
0.88 0.02 0
0.9 0.02 0
0.92 0.02 0
0.94 0.02 0
0.96 0.02 0
0.98 0.02 0
1 0.02 0
0 0.04 0
0.02 0.04 0
0.04 0.04 0
0.06 0.04 0
0.08 0.04 0
0.1 0.04 0
0.12 0.04 0
0.14 0.04 0
0.16 0.04 0
0.18 0.04 0
0.2 0.04 0
0.22 0.04 0
0.24 0.04 0
0.26 0.04 0
0.28 0.04 0
0.3 0.04 0
0.32 0.04 0
0.34 0.04 0
0.36 0.04 0
0.38 0.04 0
0.4 0.04 0
0.42 0.04 0
0.44 0.04 0
0.46 0.04 0
0.48 0.04 0
0.5 0.04 0
0.52 0.04 0
0.54 0.04 0
0.56 0.04 0
0.58 0.04 0
0.6 0.04 0
0.62 0.04 0
0.64 0.04 0
0.66 0.04 0
0.68 0.04 0
0.7 0.04 0
0.72 0.04 0
0.74 0.04 0
0.76 0.04 0
0.78 0.04 0
0.8 0.04 0
0.82 0.04 0
0.84 0.04 0
0.86 0.04 0
0.88 0.04 0
0.9 0.04 0
0.92 0.04 0
0.94 0.04 0
0.96 0.04 0
0.98 0.04 0
1 0.04 0
0 0.06 0
0.02 0.06 0
0.04 0.06 0
0.06 0.06 0
0.08 0.06 0
0.1 0.06 0
0.12 0.06 0
0.14 0.06 0
0.16 0.06 0
0.18 0.06 0
0.2 0.06 0
0.22 0.06 0
0.24 0.06 0
0.26 0.06 0
0.28 0.06 0
0.3 0.06 0
0.32 0.06 0
0.34 0.06 0
0.36 0.06 0
0.38 0.06 0
0.4 0.06 0
0.42 0.06 0
0.44 0.06 0
0.46 0.06 0
0.48 0.06 0
0.5 0.06 0
0.52 0.06 0
0.54 0.06 0
0.56 0.06 0
0.58 0.06 0
0.6 0.06 0
0.62 0.06 0
0.64 0.06 0
0.66 0.06 0
0.68 0.06 0
0.7 0.06 0
0.72 0.06 0
0.74 0.06 0
0.76 0.06 0
0.78 0.06 0
0.8 0.06 0
0.82 0.06 0
0.84 0.06 0
0.86 0.06 0
0.88 0.06 0
0.9 0.06 0
0.92 0.06 0
0.94 0.06 0
0.96 0.06 0
0.98 0.06 0
1 0.06 0
0 0.08 0
0.02 0.08 0
0.04 0.08 0
0.06 0.08 0
0.08 0.08 0
0.1 0.08 0
0.12 0.08 0
0.14 0.08 0
0.16 0.08 0
0.18 0.08 0
0.2 0.08 0
0.22 0.08 0
0.24 0.08 0
0.26 0.08 0
0.28 0.08 0
0.3 0.08 0
0.32 0.08 0
0.34 0.08 0
0.36 0.08 0
0.38 0.08 0
0.4 0.08 0
0.42 0.08 0
0.44 0.08 0
0.46 0.08 0
0.48 0.08 0
0.5 0.08 0
0.52 0.08 0
0.54 0.08 0
0.56 0.08 0
0.58 0.08 0
0.6 0.08 0
0.62 0.08 0
0.64 0.08 0
0.66 0.08 0
0.68 0.08 0
0.7 0.08 0
0.72 0.08 0
0.74 0.08 0
0.76 0.08 0
0.78 0.08 0
0.8 0.08 0
0.82 0.08 0
0.84 0.08 0
0.86 0.08 0
0.88 0.08 0
0.9 0.08 0
0.92 0.08 0
0.94 0.08 0
0.96 0.08 0
0.98 0.08 0
1 0.08 0
0 0.1 0
0.02 0.1 0
0.04 0.1 0
0.06 0.1 0
0.08 0.1 0
0.1 0.1 0
0.12 0.1 0
0.14 0.1 0
0.16 0.1 0
0.18 0.1 0
0.2 0.1 0
0.22 0.1 0
0.24 0.1 0
0.26 0.1 0
0.28 0.1 0
0.3 0.1 0
0.32 0.1 0
0.34 0.1 0
0.36 0.1 0
0.38 0.1 0
0.4 0.1 0
0.42 0.1 0
0.44 0.1 0
0.46 0.1 0
0.48 0.1 0
0.5 0.1 0
0.52 0.1 0
0.54 0.1 0
0.56 0.1 0
0.58 0.1 0
0.6 0.1 0
0.62 0.1 0
0.64 0.1 0
0.66 0.1 0
0.68 0.1 0
0.7 0.1 0
0.72 0.1 0
0.74 0.1 0
0.76 0.1 0
0.78 0.1 0
0.8 0.1 0
0.82 0.1 0
0.84 0.1 0
0.86 0.1 0
0.88 0.1 0
0.9 0.1 0
0.92 0.1 0
0.94 0.1 0
0.96 0.1 0
0.98 0.1 0
1 0.1 0
0 0.12 0
0.02 0.12 0
0.04 0.12 0
0.06 0.12 0
0.08 0.12 0
0.1 0.12 0
0.12 0.12 0
0.14 0.12 0
0.16 0.12 0
0.18 0.12 0
0.2 0.12 0
0.22 0.12 0
0.24 0.12 0
0.26 0.12 0
0.28 0.12 0
0.3 0.12 0
0.32 0.12 0
0.34 0.12 0
0.36 0.12 0
0.38 0.12 0
0.4 0.12 0
0.42 0.12 0
0.44 0.12 0
0.46 0.12 0
0.48 0.12 0
0.5 0.12 0
0.52 0.12 0
0.54 0.12 0
0.56 0.12 0
0.58 0.12 0
0.6 0.12 0
0.62 0.12 0
0.64 0.12 0
0.66 0.12 0
0.68 0.12 0
0.7 0.12 0
0.72 0.12 0
0.74 0.12 0
0.76 0.12 0
0.78 0.12 0
0.8 0.12 0
0.82 0.12 0
0.84 0.12 0
0.86 0.12 0
0.88 0.12 0
0.9 0.12 0
0.92 0.12 0
0.94 0.12 0
0.96 0.12 0
0.98 0.12 0
1 0.12 0
0 0.14 0
0.02 0.14 0
0.04 0.14 0
0.06 0.14 0
0.08 0.14 0
0.1 0.14 0
0.12 0.14 0
0.14 0.14 0
0.16 0.14 0
0.18 0.14 0
0.2 0.14 0
0.22 0.14 0
0.24 0.14 0
0.26 0.14 0
0.28 0.14 0
0.3 0.14 0
0.32 0.14 0
0.34 0.14 0
0.36 0.14 0
0.38 0.14 0
0.4 0.14 0
0.42 0.14 0
0.44 0.14 0
0.46 0.14 0
0.48 0.14 0
0.5 0.14 0
0.52 0.14 0
0.54 0.14 0
0.56 0.14 0
0.58 0.14 0
0.6 0.14 0
0.62 0.14 0
0.64 0.14 0
0.66 0.14 0
0.68 0.14 0
0.7 0.14 0
0.72 0.14 0
0.74 0.14 0
0.76 0.14 0
0.78 0.14 0
0.8 0.14 0
0.82 0.14 0
0.84 0.14 0
0.86 0.14 0
0.88 0.14 0
0.9 0.14 0
0.92 0.14 0
0.94 0.14 0
0.96 0.14 0
0.98 0.14 0
1 0.14 0
0 0.16 0
0.02 0.16 0
0.04 0.16 0
0.06 0.16 0
0.08 0.16 0
0.1 0.16 0
0.12 0.16 0
0.14 0.16 0
0.16 0.16 0
0.18 0.16 0
0.2 0.16 0
0.22 0.16 0
0.24 0.16 0
0.26 0.16 0
0.28 0.16 0
0.3 0.16 0
0.32 0.16 0
0.34 0.16 0
0.36 0.16 0
0.38 0.16 0
0.4 0.16 0
0.42 0.16 0
0.44 0.16 0
0.46 0.16 0
0.48 0.16 0
0.5 0.16 0
0.52 0.16 0
0.54 0.16 0
0.56 0.16 0
0.58 0.16 0
0.6 0.16 0
0.62 0.16 0
0.64 0.16 0
0.66 0.16 0
0.68 0.16 0
0.7 0.16 0
0.72 0.16 0
0.74 0.16 0
0.76 0.16 0
0.78 0.16 0
0.8 0.16 0
0.82 0.16 0
0.84 0.16 0
0.86 0.16 0
0.88 0.16 0
0.9 0.16 0
0.92 0.16 0
0.94 0.16 0
0.96 0.16 0
0.98 0.16 0
1 0.16 0
0 0.18 0
0.02 0.18 0
0.04 0.18 0
0.06 0.18 0
0.08 0.18 0
0.1 0.18 0
0.12 0.18 0
0.14 0.18 0
0.16 0.18 0
0.18 0.18 0
0.2 0.18 0
0.22 0.18 0
0.24 0.18 0
0.26 0.18 0
0.28 0.18 0
0.3 0.18 0
0.32 0.18 0
0.34 0.18 0
0.36 0.18 0
0.38 0.18 0
0.4 0.18 0
0.42 0.18 0
0.44 0.18 0
0.46 0.18 0
0.48 0.18 0
0.5 0.18 0
0.52 0.18 0
0.54 0.18 0
0.56 0.18 0
0.58 0.18 0
0.6 0.18 0
0.62 0.18 0
0.64 0.18 0
0.66 0.18 0
0.68 0.18 0
0.7 0.18 0
0.72 0.18 0
0.74 0.18 0
0.76 0.18 0
0.78 0.18 0
0.8 0.18 0
0.82 0.18 0
0.84 0.18 0
0.86 0.18 0
0.88 0.18 0
0.9 0.18 0
0.92 0.18 0
0.94 0.18 0
0.96 0.18 0
0.98 0.18 0
1 0.18 0
0 0.2 0
0.02 0.2 0
0.04 0.2 0
0.06 0.2 0
0.08 0.2 0
0.1 0.2 0
0.12 0.2 0
0.14 0.2 0
0.16 0.2 0
0.18 0.2 0
0.2 0.2 0
0.22 0.2 0
0.24 0.2 0
0.26 0.2 0
0.28 0.2 0
0.3 0.2 0
0.32 0.2 0
0.34 0.2 0
0.36 0.2 0
0.38 0.2 0
0.4 0.2 0
0.42 0.2 0
0.44 0.2 0
0.46 0.2 0
0.48 0.2 0
0.5 0.2 0
0.52 0.2 0
0.54 0.2 0
0.56 0.2 0
0.58 0.2 0
0.6 0.2 0
0.62 0.2 0
0.64 0.2 0
0.66 0.2 0
0.68 0.2 0
0.7 0.2 0
0.72 0.2 0
0.74 0.2 0
0.76 0.2 0
0.78 0.2 0
0.8 0.2 0
0.82 0.2 0
0.84 0.2 0
0.86 0.2 0
0.88 0.2 0
0.9 0.2 0
0.92 0.2 0
0.94 0.2 0
0.96 0.2 0
0.98 0.2 0
1 0.2 0
0 0.22 0
0.02 0.22 0
0.04 0.22 0
0.06 0.22 0
0.08 0.22 0
0.1 0.22 0
0.12 0.22 0
0.14 0.22 0
0.16 0.22 0
0.18 0.22 0
0.2 0.22 0
0.22 0.22 0
0.24 0.22 0
0.26 0.22 0
0.28 0.22 0
0.3 0.22 0
0.32 0.22 0
0.34 0.22 0
0.36 0.22 0
0.38 0.22 0
0.4 0.22 0
0.42 0.22 0
0.44 0.22 0
0.46 0.22 0
0.48 0.22 0
0.5 0.22 0
0.52 0.22 0
0.54 0.22 0
0.56 0.22 0
0.58 0.22 0
0.6 0.22 0
0.62 0.22 0
0.64 0.22 0
0.66 0.22 0
0.68 0.22 0
0.7 0.22 0
0.72 0.22 0
0.74 0.22 0
0.76 0.22 0
0.78 0.22 0
0.8 0.22 0
0.82 0.22 0
0.84 0.22 0
0.86 0.22 0
0.88 0.22 0
0.9 0.22 0
0.92 0.22 0
0.94 0.22 0
0.96 0.22 0
0.98 0.22 0
1 0.22 0
0 0.24 0
0.02 0.24 0
0.04 0.24 0
0.06 0.24 0
0.08 0.24 0
0.1 0.24 0
0.12 0.24 0
0.14 0.24 0
0.16 0.24 0
0.18 0.24 0
0.2 0.24 0
0.22 0.24 0
0.24 0.24 0
0.26 0.24 0
0.28 0.24 0
0.3 0.24 0
0.32 0.24 0
0.34 0.24 0
0.36 0.24 0
0.38 0.24 0
0.4 0.24 0
0.42 0.24 0
0.44 0.24 0
0.46 0.24 0
0.48 0.24 0
0.5 0.24 0
0.52 0.24 0
0.54 0.24 0
0.56 0.24 0
0.58 0.24 0
0.6 0.24 0
0.62 0.24 0
0.64 0.24 0
0.66 0.24 0
0.68 0.24 0
0.7 0.24 0
0.72 0.24 0
0.74 0.24 0
0.76 0.24 0
0.78 0.24 0
0.8 0.24 0
0.82 0.24 0
0.84 0.24 0
0.86 0.24 0
0.88 0.24 0
0.9 0.24 0
0.92 0.24 0
0.94 0.24 0
0.96 0.24 0
0.98 0.24 0
1 0.24 0
0 0.26 0
0.02 0.26 0
0.04 0.26 0
0.06 0.26 0
0.08 0.26 0
0.1 0.26 0
0.12 0.26 0
0.14 0.26 0
0.16 0.26 0
0.18 0.26 0
0.2 0.26 0
0.22 0.26 0
0.24 0.26 0
0.26 0.26 0
0.28 0.26 0
0.3 0.26 0
0.32 0.26 0
0.34 0.26 0
0.36 0.26 0
0.38 0.26 0
0.4 0.26 0
0.42 0.26 0
0.44 0.26 0
0.46 0.26 0
0.48 0.26 0
0.5 0.26 0
0.52 0.26 0
0.54 0.26 0
0.56 0.26 0
0.58 0.26 0
0.6 0.26 0
0.62 0.26 0
0.64 0.26 0
0.66 0.26 0
0.68 0.26 0
0.7 0.26 0
0.72 0.26 0
0.74 0.26 0
0.76 0.26 0
0.78 0.26 0
0.8 0.26 0
0.82 0.26 0
0.84 0.26 0
0.86 0.26 0
0.88 0.26 0
0.9 0.26 0
0.92 0.26 0
0.94 0.26 0
0.96 0.26 0
0.98 0.26 0
1 0.26 0
0 0.28 0
0.02 0.28 0
0.04 0.28 0
0.06 0.28 0
0.08 0.28 0
0.1 0.28 0
0.12 0.28 0
0.14 0.28 0
0.16 0.28 0
0.18 0.28 0
0.2 0.28 0
0.22 0.28 0
0.24 0.28 0
0.26 0.28 0
0.28 0.28 0
0.3 0.28 0
0.32 0.28 0
0.34 0.28 0
0.36 0.28 0
0.38 0.28 0
0.4 0.28 0
0.42 0.28 0
0.44 0.28 0
0.46 0.28 0
0.48 0.28 0
0.5 0.28 0
0.52 0.28 0
0.54 0.28 0
0.56 0.28 0
0.58 0.28 0
0.6 0.28 0
0.62 0.28 0
0.64 0.28 0
0.66 0.28 0
0.68 0.28 0
0.7 0.28 0
0.72 0.28 0
0.74 0.28 0
0.76 0.28 0
0.78 0.28 0
0.8 0.28 0
0.82 0.28 0
0.84 0.28 0
0.86 0.28 0
0.88 0.28 0
0.9 0.28 0
0.92 0.28 0
0.94 0.28 0
0.96 0.28 0
0.98 0.28 0
1 0.28 0
0 0.3 0
0.02 0.3 0
0.04 0.3 0
0.06 0.3 0
0.08 0.3 0
0.1 0.3 0
0.12 0.3 0
0.14 0.3 0
0.16 0.3 0
0.18 0.3 0
0.2 0.3 0
0.22 0.3 0
0.24 0.3 0
0.26 0.3 0
0.28 0.3 0
0.3 0.3 0
0.32 0.3 0
0.34 0.3 0
0.36 0.3 0
0.38 0.3 0
0.4 0.3 0
0.42 0.3 0
0.44 0.3 0
0.46 0.3 0
0.48 0.3 0
0.5 0.3 0
0.52 0.3 0
0.54 0.3 0
0.56 0.3 0
0.58 0.3 0
0.6 0.3 0
0.62 0.3 0
0.64 0.3 0
0.66 0.3 0
0.68 0.3 0
0.7 0.3 0
0.72 0.3 0
0.74 0.3 0
0.76 0.3 0
0.78 0.3 0
0.8 0.3 0
0.82 0.3 0
0.84 0.3 0
0.86 0.3 0
0.88 0.3 0
0.9 0.3 0
0.92 0.3 0
0.94 0.3 0
0.96 0.3 0
0.98 0.3 0
1 0.3 0
0 0.32 0
0.02 0.32 0
0.04 0.32 0
0.06 0.32 0
0.08 0.32 0
0.1 0.32 0
0.12 0.32 0
0.14 0.32 0
0.16 0.32 0
0.18 0.32 0
0.2 0.32 0
0.22 0.32 0
0.24 0.32 0
0.26 0.32 0
0.28 0.32 0
0.3 0.32 0
0.32 0.32 0
0.34 0.32 0
0.36 0.32 0
0.38 0.32 0
0.4 0.32 0
0.42 0.32 0
0.44 0.32 0
0.46 0.32 0
0.48 0.32 0
0.5 0.32 0
0.52 0.32 0
0.54 0.32 0
0.56 0.32 0
0.58 0.32 0
0.6 0.32 0
0.62 0.32 0
0.64 0.32 0
0.66 0.32 0
0.68 0.32 0
0.7 0.32 0
0.72 0.32 0
0.74 0.32 0
0.76 0.32 0
0.78 0.32 0
0.8 0.32 0
0.82 0.32 0
0.84 0.32 0
0.86 0.32 0
0.88 0.32 0
0.9 0.32 0
0.92 0.32 0
0.94 0.32 0
0.96 0.32 0
0.98 0.32 0
1 0.32 0
0 0.34 0
0.02 0.34 0
0.04 0.34 0
0.06 0.34 0
0.08 0.34 0
[...]
POINT_DATA 2601
SCALARS pressure float 1
LOOKUP_TABLE default
0.0154795
0.0154733
0.0153772
0.0151549
0.0148582
0.0145248
0.0141863
0.0138658
0.0135792
0.0133372
0.0131469
0.0130124
0.0129365
0.0129209
0.0129665
0.0130741
0.0132439
0.0134758
0.0137691
0.0141225
0.0145337
0.0149991
0.0155141
0.0160722
0.0166656
0.0172848
0.0179186
0.0185548
0.0191797
0.0197791
0.0203384
0.0208431
0.0212798
0.0216364
0.0219028
0.0220715
0.0221382
0.0221021
0.021966
0.0217368
0.0214253
0.0210462
0.0206176
0.020161
0.0197009
0.0192647
0.0188813
0.0185814
0.0183896
0.0183346
0.0183472
0.0155443
0.0155345
0.0154397
0.015238
0.0149721
0.0146733
0.0143687
0.0140786
0.0138177
0.0135961
0.0134208
0.0132963
0.0132255
0.0132105
0.0132525
0.0133523
0.0135103
0.0137266
0.0140004
0.0143307
0.014715
0.0151502
0.0156316
0.0161533
0.0167079
0.0172862
0.0178781
0.0184718
0.0190548
0.0196135
0.0201346
0.0206045
0.0210109
0.0213425
0.0215901
0.0217469
0.021809
0.0217759
0.0216506
0.0214396
0.0211533
0.0208053
0.0204127
0.0199954
0.019576
0.0191789
0.0188301
0.0185562
0.018378
0.0183239
0.0183351
0.0157327
0.0157024
0.0155917
0.0154093
0.0151803
0.0149274
0.0146698
0.0144235
0.0142005
0.0140095
0.0138571
0.0137478
0.0136846
0.0136698
0.0137051
0.0137915
0.0139296
0.0141196
0.0143611
0.0146531
0.0149936
0.0153796
0.0158071
0.0162707
0.0167636
0.017278
0.0178043
0.0183323
0.0188506
0.0193473
0.0198102
0.0202275
0.0205881
0.0208821
0.0211013
0.02124
0.0212949
0.0212659
0.0211558
0.0209708
0.0207204
0.020417
0.0200758
0.0197142
0.0193516
0.0190086
0.0187061
0.0184654
0.0183021
0.0182429
0.0182463
0.0160262
0.015961
0.0158071
0.0156155
0.0153921
0.0151561
0.0149205
0.0146975
0.0144963
0.0143239
0.0141856
0.0140853
0.0140258
0.0140093
0.0140374
0.0141113
0.0142318
0.0143994
0.014614
0.0148748
0.0151803
0.0155281
0.0159144
0.0163346
0.0167827
0.0172512
0.0177317
0.0182146
0.0186894
0.019145
0.01957
0.0199535
0.0202849
0.020555
0.0207563
0.0208832
0.0209328
0.0209049
0.0208022
0.0206307
0.0203991
0.0201188
0.0198038
0.0194699
0.0191343
0.0188151
0.0185304
0.0182977
0.0181315
0.0180522
0.0180397
0.0163849
0.0162765
0.0160647
0.0158502
0.0156187
0.015387
0.0151628
0.0149542
0.0147678
0.0146084
0.0144799
0.0143853
0.0143268
0.0143064
0.0143256
0.0143857
0.0144878
0.0146326
0.0148204
0.0150508
0.0153228
0.0156345
0.0159829
0.0163638
0.0167719
0.0172006
0.0176419
0.0180871
0.0185262
0.0189488
0.019344
0.0197013
0.0200106
0.0202629
0.0204508
0.020569
0.0206144
0.0205867
0.0204886
0.0203254
0.0201052
0.0198388
0.0195391
0.0192204
0.0188983
0.0185887
0.0183074
0.0180692
0.0178878
0.0177743
0.0177374
0.0167733
0.0166173
0.0163387
0.0160908
0.0158396
0.0156011
0.0153775
0.0151743
0.0149947
0.0148418
0.0147178
0.0146246
0.0145638
0.014537
0.0145455
0.0145908
0.014674
0.0147963
0.0149584
0.0151604
0.0154018
0.0156814
0.0159967
0.0163444
0.0167197
0.0171165
0.0175277
0.0179447
0.0183582
0.018758
0.0191335
0.0194742
0.0197702
0.0200123
0.020193
0.0203067
0.0203502
0.0203228
0.0202266
0.0200668
0.0198508
0.0195888
0.0192928
0.0189763
0.0186536
0.0183391
0.0180472
0.0177901
0.0175821
0.0174237
0.0173563
0.0171612
0.0169564
0.0166071
0.01632
0.016042
0.0157891
0.0155591
0.0153542
0.0151754
0.0150236
0.0148994
0.0148037
0.0147373
0.0147013
0.0146971
0.0147259
0.0147894
0.0148889
0.0150255
0.0152002
0.015413
0.0156633
0.0159494
0.0162685
0.0166165
0.016988
0.0173761
0.0177729
0.0181692
0.0185549
0.0189194
0.0192521
0.0195428
0.0197819
0.0199616
0.0200756
0.0201202
0.0200943
0.0199994
0.0198401
0.0196236
0.0193592
0.0190586
0.0187344
0.0184003
0.0180696
0.0177559
0.0174697
0.0172263
0.0170152
0.0169138
0.0175232
0.0172699
0.0168491
0.0165196
0.0162104
0.015938
0.015696
0.0154842
0.0153009
0.0151454
0.0150167
0.0149145
0.0148391
0.0147911
0.0147717
0.0147823
0.0148246
0.0149006
0.015012
0.0151601
0.0153458
0.0155691
0.0158291
0.0161238
0.0164496
0.0168016
0.0171735
0.0175575
0.0179446
0.0183246
0.0186868
0.0190201
0.0193137
0.0195576
0.019743
0.019863
0.019913
0.0198912
0.0197984
0.0196386
0.0194184
0.0191468
0.0188349
0.0184952
0.0181407
0.0177844
0.0174395
0.0171153
0.0168292
0.0165603
0.0164226
0.0178375
0.0175371
0.0170458
0.0166727
0.01633
0.0160348
0.015777
0.0155541
0.0153623
0.0151988
0.0150616
0.0149493
0.0148615
0.0147984
0.0147611
0.0147512
0.0147708
0.0148222
0.0149077
0.0150293
0.0151888
0.0153868
0.0156233
0.0158969
0.0162047
0.0165424
0.016904
0.017282
0.0176672
0.0180496
0.0184179
0.0187604
0.0190656
0.0193224
0.0195212
0.0196539
0.019715
0.0197014
0.0196132
0.0194536
0.0192286
0.0189469
0.0186191
0.0182577
0.0178756
0.0174859
0.017102
0.0167326
0.0163978
0.0160667
0.0158913
0.0180849
0.0177393
0.0171797
0.0167633
0.016386
0.0160662
0.01579
0.0155528
0.0153489
0.0151739
0.0150245
0.0148985
0.0147948
0.0147134
0.0146554
0.0146225
0.0146171
0.0146422
0.0147007
0.0147954
0.0149287
0.0151024
0.015317
0.015572
0.0158653
0.016193
0.0165496
0.0169277
0.0173183
0.0177108
0.0180935
0.0184541
0.0187799
0.0190588
0.0192797
0.0194333
0.0195125
0.019513
0.0194338
0.0192771
0.0190481
0.018755
0.0184086
0.018021
0.0176057
0.0171762
0.0167466
0.0163255
0.0159366
0.0155395
0.0153247
0.0182483
0.0178597
0.0172347
0.0167759
0.0163643
0.0160188
0.0157224
0.0154687
0.0152498
0.0150601
0.0148951
0.0147518
0.0146287
0.0145256
0.0144436
0.0143846
0.0143517
0.0143481
0.0143778
0.0144442
0.0145508
0.0147
0.0148935
0.0151316
0.0154128
0.0157341
0.0160902
0.016474
0.0168764
0.0172867
0.0176924
0.0180802
0.0184364
0.0187474
0.0190005
0.0191845
0.0192907
0.0193132
0.0192494
0.0191002
0.01887
0.0185665
0.0182003
0.0177838
0.0173311
0.0168564
0.0163752
0.0158965
0.0154484
0.014981
0.0147249
0.0183118
0.0178825
0.0171957
0.0166962
0.0162509
0.0158796
0.0155618
0.0152896
0.0150534
0.014846
0.0146621
0.0144981
0.0143519
0.0142234
0.0141137
0.0140253
0.0139614
0.0139263
0.0139245
0.0139605
0.0140386
0.0141623
0.0143344
0.0145561
0.0148267
0.015144
0.0155032
0.0158976
0.016318
0.0167533
0.0171905
0.0176152
0.0180123
0.0183665
0.0186632
0.018889
0.0190332
0.0190877
0.0190479
0.0189133
0.018687
0.0183761
0.0179909
0.0175443
0.0170512
0.016527
0.015989
0.0154472
0.0149344
0.0143917
0.0140919
0.0182605
0.0177933
0.0170485
0.0165104
0.0160327
0.0156356
0.015296
0.0150038
0.0147479
0.0145201
0.0143141
0.0141257
0.0139527
0.0137948
0.0136534
0.0135314
0.0134327
0.0133622
0.0133253
0.0133276
0.0133744
0.0134705
0.0136196
0.013824
0.0140842
0.0143988
0.0147638
0.0151726
0.0156164
0.0160837
0.0165609
0.0170326
0.0174819
0.0178917
0.018245
0.0185261
0.0187215
0.0188204
0.0188161
0.0187057
0.0184909
0.0181779
0.0177765
0.0173004
0.0167653
0.0161883
0.0155888
0.0149783
0.0143952
0.0137711
0.0134241
0.018081
0.0175785
0.0167799
0.0162057
0.0156972
0.0152749
0.0149128
0.0145993
0.0143218
0.014071
0.0138396
0.0136231
0.0134191
0.0132275
0.0130499
0.0128895
0.0127512
0.0126406
0.012564
0.0125282
0.0125396
0.0126043
0.0127274
0.0129123
0.0131609
0.0134727
0.0138446
0.0142707
0.0147425
0.0152483
0.0157738
0.0163026
0.0168161
0.0172951
0.0177199
0.0180718
0.0183341
0.0184929
0.0185382
0.0184648
0.0182721
0.0179649
0.0175528
0.0170496
0.0164725
0.0158402
0.0151751
0.0144903
0.0138307
0.0131178
0.0127193
0.0177602
0.0172257
0.0163777
0.0157702
0.0152326
0.0147858
0.014401
0.0140651
0.013764
0.0134873
0.0132272
0.0129787
0.0127394
0.0125092
0.0122902
0.0120862
0.0119026
0.0117461
0.0116241
0.0115445
0.011515
0.0115432
0.0116354
0.0117969
0.0120308
0.012338
0.0127166
0.0131614
0.0136645
0.0142143
0.0147961
0.0153923
0.0159826
0.0165454
0.0170582
0.0174987
0.0178464
0.0180835
0.0181963
0.0181759
0.0180193
0.0177292
0.0173145
0.0167891
0.0161716
0.0154829
0.0147484
0.0139838
0.0132409
0.0124306
0.0119753
0.0172866
0.0167232
0.0158309
0.0151929
0.0146282
0.0141578
0.0137501
0.0133906
0.0130638
0.0127585
0.0124661
0.0121815
0.0119022
0.0116282
0.0113621
0.0111083
0.010873
0.0106639
0.0104894
0.0103588
0.0102814
0.0102661
0.0103211
0.0104532
0.0106674
0.0109662
0.0113491
0.0118124
0.0123486
0.0129468
0.0135919
0.0142653
0.0149453
0.0156076
0.0162264
0.0167756
0.0172301
0.0175674
0.017769
0.0178219
0.0177193
0.0174613
0.0170554
0.0165155
0.0158614
0.0151165
0.0143098
0.0134596
0.0126262
0.0117084
0.0111902
0.0166497
0.016061
0.0151296
0.0144642
0.0138745
0.0133812
0.0129505
0.0125663
0.0122118
0.0118749
0.0115467
0.0112216
0.0108971
0.0105737
0.0102542
0.00994372
0.00964939
0.00937978
0.00914466
0.0089546
0.00882048
0.00875303
0.00876228
0.00885705
0.00904429
0.00932853
0.00971133
0.0101904
0.0107596
0.0114087
0.0121228
0.0128827
0.0136651
0.014443
0.0151872
0.0158672
0.0164527
0.0169157
0.0172319
0.0173827
0.0173565
0.01715
0.0167684
0.016225
0.0155409
0.0147418
0.013861
0.0129199
0.0119883
0.0109514
0.0103629
0.0158404
0.0152301
0.014265
0.0135756
0.0129631
0.0124479
0.011994
0.0115838
0.0111996
0.0108282
0.0104603
0.0100902
0.00971529
0.00933633
0.00895665
0.00858208
0.0082205
0.00788158
0.00757637
0.00731692
0.00711579
0.00698564
0.00693861
0.00698575
0.00713641
0.00739751
0.00777304
0.00826275
0.00886221
0.00956258
0.0103496
0.0112036
0.0121001
0.0130098
0.0138997
0.0147345
0.0154781
0.0160958
0.0165565
0.0168347
0.0169127
0.0167822
0.016445
0.0159134
0.015209
0.0143602
0.0134048
0.0123677
0.0113298
0.0101612
0.00949416
0.014851
0.014223
0.0132303
0.0125201
0.0118871
0.011351
0.0108738
0.0104366
0.0100204
0.00961162
0.00920027
0.0087804
0.00834962
0.00790883
0.00746184
0.00701514
0.00657746
0.00615956
0.00577378
0.00543371
0.00515374
0.00494858
0.00483269
0.00481968
0.00492161
0.00514821
0.00550646
0.00599872
0.00662282
0.00737195
0.00823301
0.00918677
0.0102078
0.0112645
0.0123205
0.0133352
0.0142662
0.0150712
0.0157108
0.0161511
0.0163666
0.0163423
0.0160755
0.0155758
0.014865
0.013974
0.0129453
0.0118081
0.0106558
0.0093414
0.00858657
0.0136758
0.0130343
0.0120199
0.0112925
0.0106413
0.0100853
0.00958465
0.00911935
0.00866937
0.00822028
0.00776174
0.00728759
0.00679545
0.00628646
0.00576486
0.00523773
0.00471466
0.00420746
0.00372978
0.00329682
0.00292484
0.00263077
0.00243159
0.00234371
0.00238229
0.0025603
0.00288822
0.00337167
0.0040114
0.00480337
0.00573648
0.00679254
0.00794584
0.00916329
0.0104049
0.0116252
0.0127745
0.0138023
0.0146593
0.0153018
0.0156942
0.015813
0.0156487
0.0152069
0.0145086
0.0135865
0.0124885
0.0112484
0.00997361
0.00849846
0.00764566
0.0123107
0.0116599
0.0106301
0.00988906
0.00922206
0.00864733
0.00812338
0.00762913
0.00714357
0.00665161
0.00614246
0.00560973
0.00505104
0.00446768
0.00386426
0.00324842
0.00263053
0.00202342
0.00144203
0.000903163
0.000425043
2.68904e-05
-0.000271624
-0.000451017
-0.000492733
-0.000380064
-9.87982e-05
0.000361066
0.00100401
0.00182908
0.00282835
0.00398552
0.00527558
0.00666451
0.00810949
0.00955993
0.0109592
0.0122473
0.0133641
0.0142538
0.0148688
0.0151745
0.015152
0.014801
0.01414
0.0132029
0.0120428
0.0106986
0.00929404
0.00764228
0.00668048
0.010754
0.0100982
0.00905906
0.00830796
0.00762767
0.00703548
0.00648859
0.00596488
0.00544245
0.00490555
0.00434291
0.00374788
0.003118
0.00245463
0.00176267
0.00105023
0.000328365
-0.000389156
-0.00108612
-0.00174416
-0.00234309
-0.0028613
-0.0032763
-0.00356536
-0.00370621
-0.00367802
-0.00346241
-0.00304418
-0.00241435
-0.00157002
-0.000514888
0.000737707
0.00216458
0.00373178
0.00539449
0.00709767
0.00877758
0.0103644
0.011786
0.0129725
0.013862
0.0144054
0.014572
0.0143524
0.0137605
0.0128301
0.0116195
0.0101726
0.0086319
0.00678712
0.00570452
0.00900576
0.00834906
0.00730683
0.0065492
0.0058582
0.00525008
0.00468099
0.00412784
0.00356791
0.00298477
0.00236663
0.00170651
0.00100173
0.000253671
-0.000532641
-0.00134874
-0.00218299
-0.00302076
-0.00384468
-0.00463487
-0.00536917
-0.00602361
-0.00657279
-0.00699054
-0.0072507
-0.00732795
-0.00719915
-0.00684357
-0.00624694
-0.00540133
-0.00430532
-0.002968
-0.00140949
0.000337658
0.00222784
0.00420249
0.00619128
0.0081145
0.00988701
0.0114234
0.0126443
0.0134836
0.0138946
0.0138556
0.0133727
0.0124778
0.0112332
0.00968851
0.00800698
0.00595259
0.00473676
0.0070685
0.00641484
0.00537526
0.00461456
0.00391552
0.00329332
0.00270332
0.00212153
0.00152443
0.000894859
0.000220453
-0.000506247
-0.00128822
-0.00212427
-0.00300935
-0.00393479
-0.0048885
-0.00585514
-0.0068163
-0.00775063
-0.00863412
-0.00944041
-0.0101412
-0.0107068
-0.011107
-0.0113117
-0.0112926
-0.011023
-0.0104826
-0.00965759
-0.00854026
-0.00713419
-0.00545501
-0.00353228
-0.00141088
0.000848532
0.00317006
0.00546457
0.00763349
0.00957437
0.0111882
0.0123879
0.0131069
0.0133065
0.0129816
0.0121587
0.0109033
0.00926997
0.00744523
0.00516486
0.0038029
0.0049467
0.00429961
0.00326796
0.0025075
0.00180321
0.00116921
0.000560324
-4.82732e-05
-0.000680929
-0.0013556
-0.00208538
-0.00287834
-0.00373796
-0.00466337
-0.0056497
-0.00668823
-0.00776659
-0.00886888
-0.00997576
-0.0110646
-0.0121095
-0.013082
-0.0139507
-0.0146825
-0.015243
-0.0155973
-0.0157115
-0.0155531
-0.0150943
-0.0143144
-0.0131993
-0.0117455
-0.00996258
-0.00787532
-0.00552597
-0.00297546
-0.000303644
0.00239203
0.00499983
0.00739942
0.00946991
0.0110998
0.0121979
0.0127036
0.0125953
0.0118903
0.0106546
0.00894721
0.00698001
0.00445805
0.00293678
0.00264681
0.00200929
0.000990066
0.00023289
-0.000473734
-0.00111667
-0.00174142
-0.00237363
-0.00303853
-0.00375504
-0.00453716
-0.00539379
-0.0063291
-0.0073428
-0.00843036
-0.00958324
-0.0107889
-0.0120312
-0.0132898
-0.0145411
-0.0157575
-0.0169081
-0.0179591
-0.0188737
-0.0196133
-0.0201383
-0.0204089
-0.0203868
-0.020036
-0.019328
-0.0182422
-0.016766
-0.0149018
-0.0126677
-0.0101013
-0.00726152
-0.00422987
-0.00111036
0.00197324
0.00488265
0.00747351
0.00960668
0.0111616
0.0120498
0.0122268
0.0116955
0.0105189
0.0087585
0.00665366
0.0038759
0.0021821
0.000177069
-0.000448696
-0.00145205
-0.00220325
-0.00290914
-0.00355742
-0.00419375
-0.00484463
-0.00553636
-0.00628901
-0.00711776
-0.00803263
-0.00903877
-0.0101367
-0.0113225
-0.0125879
-0.0139206
-0.015304
-0.0167174
-0.018136
-0.0195308
-0.0208688
-0.0221134
-0.0232246
-0.0241597
-0.0248742
-0.0253225
-0.0254603
-0.0252434
-0.0246354
-0.0236073
-0.0221374
-0.020219
-0.017862
-0.015097
-0.0119782
-0.00858647
-0.00502953
-0.00144123
0.00202317
0.00519525
0.00790561
0.00999963
0.0113544
0.0118957
0.0116048
0.0105366
0.00875196
0.00651935
0.00347366
0.00159439
-0.00245292
-0.00306578
-0.00405124
-0.00479425
-0.00549615
-0.00614525
-0.00678727
-0.00744973
-0.00816021
-0.00894032
-0.00980679
-0.0107711
-0.0118398
-0.0130143
-0.0142918
-0.0156645
-0.0171203
-0.0186426
-0.0202102
-0.0217975
-0.0233739
-0.0249047
-0.0263507
-0.0276687
-0.028812
-0.0297315
-0.0303759
-0.0306945
-0.0306356
-0.0301542
-0.0292125
-0.0277789
-0.0258365
-0.0233852
-0.0204466
-0.0170677
-0.0133251
-0.00932753
-0.0052157
-0.00115976
0.00264841
0.00600766
0.00872513
0.0106371
0.011631
0.0116583
0.0107585
0.00898751
0.00664317
0.00332036
0.00124323
-0.00523261
-0.0058328
-0.00680017
-0.00753337
-0.00822776
-0.00887194
-0.00951177
-0.010176
-0.010894
-0.0116893
-0.0125808
-0.0135819
-0.0147007
-0.0159405
-0.0172991
-0.0187699
-0.0203411
-0.0219961
-0.0237135
-0.0254668
-0.0272242
-0.0289491
-0.0306
-0.0321306
-0.0334906
-0.0346261
-0.0354807
-0.0359971
-0.0361173
-0.0357865
-0.0349572
-0.0335891
-0.0316536
-0.0291395
-0.0260571
-0.0224438
-0.0183688
-0.0139379
-0.00929504
-0.00462182
-0.000131514
0.00394284
0.00736722
0.00993077
0.011474
0.0119083
0.0112488
0.00953937
0.00710669
0.00350133
0.00121492
-0.00815116
-0.00874061
-0.00969203
-0.0104145
-0.0110975
-0.0117295
-0.0123568
-0.0130097
-0.0137201
-0.0145142
-0.0154136
-0.0164343
-0.0175867
-0.0188757
-0.0203009
-0.0218565
-0.0235313
-0.025309
-0.0271677
-0.0290802
-0.0310136
-0.0329296
-0.0347844
-0.0365287
-0.0381088
-0.0394664
-0.04054
-0.0412662
-0.0415809
-0.0414196
-0.0407255
-0.0394491
-0.0375498
-0.0350042
-0.0318101
-0.0279928
-0.0236111
-0.0187638
-0.0135937
-0.00828946
-0.00308209
0.00176518
0.00597577
0.0092866
0.0114823
0.0124227
0.0120873
0.0104989
0.00800976
0.00412116
0.00161537
-0.0111982
-0.0117811
-0.0127216
-0.0134333
-0.0141005
-0.0147111
-0.0153121
-0.0159366
-0.0166196
-0.0173911
-0.0182763
-0.0192946
-0.0204592
-0.0217772
-0.02325
-0.024873
-0.0266357
-0.0285219
-0.0305095
-0.0325706
-0.0346711
-0.0367708
-0.0388238
-0.0407782
-0.0425766
-0.0441568
-0.0454524
-0.0463943
-0.0469119
-0.046933
-0.0463914
-0.0452276
-0.0433894
-0.0408408
-0.037566
-0.0335764
-0.0289178
-0.0236782
-0.0179946
-0.0120573
-0.00611008
-0.000442775
0.00462623
0.00877817
0.0117336
0.0132886
0.0133736
0.0119777
0.0094739
0.00530711
0.00257355
-0.0143648
-0.0149481
-0.0158863
-0.0165881
-0.0172342
-0.0178114
-0.0183687
-0.0189426
-0.019573
-0.0202949
-0.0211382
-0.0221267
-0.023277
-0.0245991
-0.0260964
-0.0277654
-0.0295966
-0.0315737
-0.0336744
-0.0358698
-0.0381246
-0.0403968
-0.0426383
-0.0447943
-0.0468042
-0.0486019
-0.0501165
-0.0512735
-0.0519961
-0.052205
-0.0518251
-0.0507872
-0.049028
-0.0464988
-0.0431696
-0.039037
-0.0341314
-0.028527
-0.0223502
-0.0157875
-0.00908926
-0.00256636
0.00342407
0.00850642
0.0123305
0.0146166
0.0152302
0.0141117
0.0116462
0.00721294
0.00424526
-0.0176449
-0.0182391
-0.0191881
-0.0198817
-0.0204999
-0.0210282
-0.0215189
-0.022014
-0.02256
-0.0231987
-0.0239664
-0.024892
-0.0259966
-0.0272934
-0.028788
-0.0304783
-0.0323553
-0.0344029
-0.036598
-0.0389107
-0.041304
-0.0437342
-0.0461506
-0.0484957
-0.0507058
-0.0527108
-0.0544356
-0.0558004
-0.0567226
-0.0571173
-0.0568999
-0.0559916
-0.0543199
-0.0518233
-0.0484578
-0.0442046
-0.0390775
-0.0331343
-0.0264868
-0.0193121
-0.0118605
-0.00445701
0.00250803
0.00860384
0.0134051
0.016545
0.0178075
0.0170656
0.0147037
0.0100235
0.00681765
-0.0210371
-0.0216571
-0.0226356
-0.0233233
-0.0239046
-0.0243631
-0.0247577
-0.0251381
-0.0255601
-0.0260747
-0.0267261
-0.0275499
-0.0285724
-0.0298105
-0.0312719
-0.032956
-0.0348541
-0.0369495
-0.0392183
-0.0416292
-0.0441432
-0.0467145
-0.0492896
-0.0518083
-0.0542032
-0.0564007
-0.0583214
-0.0598807
-0.0609902
-0.0615597
-0.0614962
-0.0607119
-0.0591255
-0.0566632
-0.0532682
-0.0489058
-0.0435733
-0.0373101
-0.0302107
-0.0224378
-0.0142348
-0.00593286
0.0020517
0.0092376
0.0151231
0.0192449
0.0212885
0.0210376
0.0188589
0.01396
0.0105145
-0.0245469
-0.0252136
-0.0262469
-0.0269308
-0.0274621
-0.0278232
-0.0280831
-0.0283033
-0.0285524
-0.0288934
-0.0293808
-0.0300582
-0.0309578
-0.0321002
-0.0334955
-0.0351441
-0.0370369
-0.0391567
-0.0414778
-0.0439669
-0.0465828
-0.0492769
-0.0519928
-0.054667
-0.0572287
-0.0596004
-0.0616982
-0.063433
-0.0647111
-0.0654362
-0.0655089
-0.064833
-0.0633178
-0.060879
-0.0574472
-0.0529732
-0.0474373
-0.0408605
-0.0333178
-0.0249537
-0.0159987
-0.00678223
0.00226259
0.0106111
0.0176873
0.0229249
0.0258943
0.0262656
0.0243662
0.0192867
0.0156024
-0.0281908
-0.0289324
-0.0300537
-0.0307349
-0.0311968
-0.0314222
-0.0314968
-0.0314992
-0.0315156
-0.0316243
-0.0318925
-0.0323731
-0.0331048
-0.0341122
-0.0354071
-0.0369903
-0.0388518
-0.0409727
-0.0433251
-0.0458729
-0.048572
-0.0513704
-0.0542085
-0.0570191
-0.0597276
-0.0622524
-0.0645052
-0.0663922
-0.0678144
-0.0686696
-0.0688524
-0.0682588
-0.0667891
-0.0643495
-0.0608586
-0.0562537
-0.0504993
-0.0435978
-0.035604
-0.0266419
-0.016924
-0.00677058
0.00337798
0.0129629
0.0213393
0.0278345
0.0318894
0.0330344
0.0315301
0.0263194
0.0223996
-0.0320014
-0.0328558
-0.0341078
-0.0347832
-0.0351456
-0.0351822
-0.0350049
-0.0347166
-0.0344272
-0.0342345
-0.0342207
-0.0344493
-0.0349654
-0.0357972
-0.0369576
-0.0384464
-0.0402519
-0.0423524
-0.0447167
-0.0473052
-0.0500699
-0.0529552
-0.0558972
-0.0588249
-0.0616593
-0.0643146
-0.0666979
-0.0687103
-0.0702477
-0.0712019
-0.0714617
-0.0709154
-0.0694545
-0.0669766
-0.0633895
-0.0586175
-0.05261
-0.045352
-0.0368779
-0.0272901
-0.0167797
-0.0056511
0.00565694
0.0165621
0.0263585
0.0342676
0.0395883
0.041684
0.0407158
0.0354368
0.0312866
-0.0360362
-0.0370538
-0.0384893
-0.0391472
-0.039363
-0.0391359
-0.0386183
-0.0379471
-0.0372634
-0.036689
-0.036323
-0.0362402
-0.0364917
-0.0371078
-0.0381012
-0.0394693
-0.0411971
-0.0432587
-0.0456186
-0.0482323
-0.0510478
-0.0540043
-0.0570333