# vtk DataFile Version 2.0
insac
ASCII
DATASET STRUCTURED_GRID
DIMENSIONS 51 51 1
POINTS 2601 float
0 0 0
0.02 0 0
0.04 0 0
0.06 0 0
0.08 0 0
0.1 0 0
0.12 0 0
0.14 0 0
0.16 0 0
0.18 0 0
0.2 0 0
0.22 0 0
0.24 0 0
0.26 0 0
0.28 0 0
0.3 0 0
0.32 0 0
0.34 0 0
0.36 0 0
0.38 0 0
0.4 0 0
0.42 0 0
0.44 0 0
0.46 0 0
0.48 0 0
0.5 0 0
0.52 0 0
0.54 0 0
0.56 0 0
0.58 0 0
0.6 0 0
0.62 0 0
0.64 0 0
0.66 0 0
0.68 0 0
0.7 0 0
0.72 0 0
0.74 0 0
0.76 0 0
0.78 0 0
0.8 0 0
0.82 0 0
0.84 0 0
0.86 0 0
0.88 0 0
0.9 0 0
0.92 0 0
0.94 0 0
0.96 0 0
0.98 0 0
1 0 0
0 0.02 0
0.02 0.02 0
0.04 0.02 0
0.06 0.02 0
0.08 0.02 0
0.1 0.02 0
0.12 0.02 0
0.14 0.02 0
0.16 0.02 0
0.18 0.02 0
0.2 0.02 0
0.22 0.02 0
0.24 0.02 0
0.26 0.02 0
0.28 0.02 0
0.3 0.02 0
0.32 0.02 0
0.34 0.02 0
0.36 0.02 0
0.38 0.02 0
0.4 0.02 0
0.42 0.02 0
0.44 0.02 0
0.46 0.02 0
0.48 0.02 0
0.5 0.02 0
0.52 0.02 0
0.54 0.02 0
0.56 0.02 0
0.58 0.02 0
0.6 0.02 0
0.62 0.02 0
0.64 0.02 0
0.66 0.02 0
0.68 0.02 0
0.7 0.02 0
0.72 0.02 0
0.74 0.02 0
0.76 0.02 0
0.78 0.02 0
0.8 0.02 0
0.82 0.02 0
0.84 0.02 0
0.86 0.02 0
0.88 0.02 0
0.9 0.02 0
0.92 0.02 0
0.94 0.02 0
0.96 0.02 0
0.98 0.02 0
1 0.02 0
0 0.04 0
0.02 0.04 0
0.04 0.04 0
0.06 0.04 0
0.08 0.04 0
0.1 0.04 0
0.12 0.04 0
0.14 0.04 0
0.16 0.04 0
0.18 0.04 0
0.2 0.04 0
0.22 0.04 0
0.24 0.04 0
0.26 0.04 0
0.28 0.04 0
0.3 0.04 0
0.32 0.04 0
0.34 0.04 0
0.36 0.04 0
0.38 0.04 0
0.4 0.04 0
0.42 0.04 0
0.44 0.04 0
0.46 0.04 0
0.48 0.04 0
0.5 0.04 0
0.52 0.04 0
0.54 0.04 0
0.56 0.04 0
0.58 0.04 0
0.6 0.04 0
0.62 0.04 0
0.64 0.04 0
0.66 0.04 0
0.68 0.04 0
0.7 0.04 0
0.72 0.04 0
0.74 0.04 0
0.76 0.04 0
0.78 0.04 0
0.8 0.04 0
0.82 0.04 0
0.84 0.04 0
0.86 0.04 0
0.88 0.04 0
0.9 0.04 0
0.92 0.04 0
0.94 0.04 0
0.96 0.04 0
0.98 0.04 0
1 0.04 0
0 0.06 0
0.02 0.06 0
0.04 0.06 0
0.06 0.06 0
0.08 0.06 0
0.1 0.06 0
0.12 0.06 0
0.14 0.06 0
0.16 0.06 0
0.18 0.06 0
0.2 0.06 0
0.22 0.06 0
0.24 0.06 0
0.26 0.06 0
0.28 0.06 0
0.3 0.06 0
0.32 0.06 0
0.34 0.06 0
0.36 0.06 0
0.38 0.06 0
0.4 0.06 0
0.42 0.06 0
0.44 0.06 0
0.46 0.06 0
0.48 0.06 0
0.5 0.06 0
0.52 0.06 0
0.54 0.06 0
0.56 0.06 0
0.58 0.06 0
0.6 0.06 0
0.62 0.06 0
0.64 0.06 0
0.66 0.06 0
0.68 0.06 0
0.7 0.06 0
0.72 0.06 0
0.74 0.06 0
0.76 0.06 0
0.78 0.06 0
0.8 0.06 0
0.82 0.06 0
0.84 0.06 0
0.86 0.06 0
0.88 0.06 0
0.9 0.06 0
0.92 0.06 0
0.94 0.06 0
0.96 0.06 0
0.98 0.06 0
1 0.06 0
0 0.08 0
0.02 0.08 0
0.04 0.08 0
0.06 0.08 0
0.08 0.08 0
0.1 0.08 0
0.12 0.08 0
0.14 0.08 0
0.16 0.08 0
0.18 0.08 0
0.2 0.08 0
0.22 0.08 0
0.24 0.08 0
0.26 0.08 0
0.28 0.08 0
0.3 0.08 0
0.32 0.08 0
0.34 0.08 0
0.36 0.08 0
0.38 0.08 0
0.4 0.08 0
0.42 0.08 0
0.44 0.08 0
0.46 0.08 0
0.48 0.08 0
0.5 0.08 0
0.52 0.08 0
0.54 0.08 0
0.56 0.08 0
0.58 0.08 0
0.6 0.08 0
0.62 0.08 0
0.64 0.08 0
0.66 0.08 0
0.68 0.08 0
0.7 0.08 0
0.72 0.08 0
0.74 0.08 0
0.76 0.08 0
0.78 0.08 0
0.8 0.08 0
0.82 0.08 0
0.84 0.08 0
0.86 0.08 0
0.88 0.08 0
0.9 0.08 0
0.92 0.08 0
0.94 0.08 0
0.96 0.08 0
0.98 0.08 0
1 0.08 0
0 0.1 0
0.02 0.1 0
0.04 0.1 0
0.06 0.1 0
0.08 0.1 0
0.1 0.1 0
0.12 0.1 0
0.14 0.1 0
0.16 0.1 0
0.18 0.1 0
0.2 0.1 0
0.22 0.1 0
0.24 0.1 0
0.26 0.1 0
0.28 0.1 0
0.3 0.1 0
0.32 0.1 0
0.34 0.1 0
0.36 0.1 0
0.38 0.1 0
0.4 0.1 0
0.42 0.1 0
0.44 0.1 0
0.46 0.1 0
0.48 0.1 0
0.5 0.1 0
0.52 0.1 0
0.54 0.1 0
0.56 0.1 0
0.58 0.1 0
0.6 0.1 0
0.62 0.1 0
0.64 0.1 0
0.66 0.1 0
0.68 0.1 0
0.7 0.1 0
0.72 0.1 0
0.74 0.1 0
0.76 0.1 0
0.78 0.1 0
0.8 0.1 0
0.82 0.1 0
0.84 0.1 0
0.86 0.1 0
0.88 0.1 0
0.9 0.1 0
0.92 0.1 0
0.94 0.1 0
0.96 0.1 0
0.98 0.1 0
1 0.1 0
0 0.12 0
0.02 0.12 0
0.04 0.12 0
0.06 0.12 0
0.08 0.12 0
0.1 0.12 0
0.12 0.12 0
0.14 0.12 0
0.16 0.12 0
0.18 0.12 0
0.2 0.12 0
0.22 0.12 0
0.24 0.12 0
0.26 0.12 0
0.28 0.12 0
0.3 0.12 0
0.32 0.12 0
0.34 0.12 0
0.36 0.12 0
0.38 0.12 0
0.4 0.12 0
0.42 0.12 0
0.44 0.12 0
0.46 0.12 0
0.48 0.12 0
0.5 0.12 0
0.52 0.12 0
0.54 0.12 0
0.56 0.12 0
0.58 0.12 0
0.6 0.12 0
0.62 0.12 0
0.64 0.12 0
0.66 0.12 0
0.68 0.12 0
0.7 0.12 0
0.72 0.12 0
0.74 0.12 0
0.76 0.12 0
0.78 0.12 0
0.8 0.12 0
0.82 0.12 0
0.84 0.12 0
0.86 0.12 0
0.88 0.12 0
0.9 0.12 0
0.92 0.12 0
0.94 0.12 0
0.96 0.12 0
0.98 0.12 0
1 0.12 0
0 0.14 0
0.02 0.14 0
0.04 0.14 0
0.06 0.14 0
0.08 0.14 0
0.1 0.14 0
0.12 0.14 0
0.14 0.14 0
0.16 0.14 0
0.18 0.14 0
0.2 0.14 0
0.22 0.14 0
0.24 0.14 0
0.26 0.14 0
0.28 0.14 0
0.3 0.14 0
0.32 0.14 0
0.34 0.14 0
0.36 0.14 0
0.38 0.14 0
0.4 0.14 0
0.42 0.14 0
0.44 0.14 0
0.46 0.14 0
0.48 0.14 0
0.5 0.14 0
0.52 0.14 0
0.54 0.14 0
0.56 0.14 0
0.58 0.14 0
0.6 0.14 0
0.62 0.14 0
0.64 0.14 0
0.66 0.14 0
0.68 0.14 0
0.7 0.14 0
0.72 0.14 0
0.74 0.14 0
0.76 0.14 0
0.78 0.14 0
0.8 0.14 0
0.82 0.14 0
0.84 0.14 0
0.86 0.14 0
0.88 0.14 0
0.9 0.14 0
0.92 0.14 0
0.94 0.14 0
0.96 0.14 0
0.98 0.14 0
1 0.14 0
0 0.16 0
0.02 0.16 0
0.04 0.16 0
0.06 0.16 0
0.08 0.16 0
0.1 0.16 0
0.12 0.16 0
0.14 0.16 0
0.16 0.16 0
0.18 0.16 0
0.2 0.16 0
0.22 0.16 0
0.24 0.16 0
0.26 0.16 0
0.28 0.16 0
0.3 0.16 0
0.32 0.16 0
0.34 0.16 0
0.36 0.16 0
0.38 0.16 0
0.4 0.16 0
0.42 0.16 0
0.44 0.16 0
0.46 0.16 0
0.48 0.16 0
0.5 0.16 0
0.52 0.16 0
0.54 0.16 0
0.56 0.16 0
0.58 0.16 0
0.6 0.16 0
0.62 0.16 0
0.64 0.16 0
0.66 0.16 0
0.68 0.16 0
0.7 0.16 0
0.72 0.16 0
0.74 0.16 0
0.76 0.16 0
0.78 0.16 0
0.8 0.16 0
0.82 0.16 0
0.84 0.16 0
0.86 0.16 0
0.88 0.16 0
0.9 0.16 0
0.92 0.16 0
0.94 0.16 0
0.96 0.16 0
0.98 0.16 0
1 0.16 0
0 0.18 0
0.02 0.18 0
0.04 0.18 0
0.06 0.18 0
0.08 0.18 0
0.1 0.18 0
0.12 0.18 0
0.14 0.18 0
0.16 0.18 0
0.18 0.18 0
0.2 0.18 0
0.22 0.18 0
0.24 0.18 0
0.26 0.18 0
0.28 0.18 0
0.3 0.18 0
0.32 0.18 0
0.34 0.18 0
0.36 0.18 0
0.38 0.18 0
0.4 0.18 0
0.42 0.18 0
0.44 0.18 0
0.46 0.18 0
0.48 0.18 0
0.5 0.18 0
0.52 0.18 0
0.54 0.18 0
0.56 0.18 0
0.58 0.18 0
0.6 0.18 0
0.62 0.18 0
0.64 0.18 0
0.66 0.18 0
0.68 0.18 0
0.7 0.18 0
0.72 0.18 0
0.74 0.18 0
0.76 0.18 0
0.78 0.18 0
0.8 0.18 0
0.82 0.18 0
0.84 0.18 0
0.86 0.18 0
0.88 0.18 0
0.9 0.18 0
0.92 0.18 0
0.94 0.18 0
0.96 0.18 0
0.98 0.18 0
1 0.18 0
0 0.2 0
0.02 0.2 0
0.04 0.2 0
0.06 0.2 0
0.08 0.2 0
0.1 0.2 0
0.12 0.2 0
0.14 0.2 0
0.16 0.2 0
0.18 0.2 0
0.2 0.2 0
0.22 0.2 0
0.24 0.2 0
0.26 0.2 0
0.28 0.2 0
0.3 0.2 0
0.32 0.2 0
0.34 0.2 0
0.36 0.2 0
0.38 0.2 0
0.4 0.2 0
0.42 0.2 0
0.44 0.2 0
0.46 0.2 0
0.48 0.2 0
0.5 0.2 0
0.52 0.2 0
0.54 0.2 0
0.56 0.2 0
0.58 0.2 0
0.6 0.2 0
0.62 0.2 0
0.64 0.2 0
0.66 0.2 0
0.68 0.2 0
0.7 0.2 0
0.72 0.2 0
0.74 0.2 0
0.76 0.2 0
0.78 0.2 0
0.8 0.2 0
0.82 0.2 0
0.84 0.2 0
0.86 0.2 0
0.88 0.2 0
0.9 0.2 0
0.92 0.2 0
0.94 0.2 0
0.96 0.2 0
0.98 0.2 0
1 0.2 0
0 0.22 0
0.02 0.22 0
0.04 0.22 0
0.06 0.22 0
0.08 0.22 0
0.1 0.22 0
0.12 0.22 0
0.14 0.22 0
0.16 0.22 0
0.18 0.22 0
0.2 0.22 0
0.22 0.22 0
0.24 0.22 0
0.26 0.22 0
0.28 0.22 0
0.3 0.22 0
0.32 0.22 0
0.34 0.22 0
0.36 0.22 0
0.38 0.22 0
0.4 0.22 0
0.42 0.22 0
0.44 0.22 0
0.46 0.22 0
0.48 0.22 0
0.5 0.22 0
0.52 0.22 0
0.54 0.22 0
0.56 0.22 0
0.58 0.22 0
0.6 0.22 0
0.62 0.22 0
0.64 0.22 0
0.66 0.22 0
0.68 0.22 0
0.7 0.22 0
0.72 0.22 0
0.74 0.22 0
0.76 0.22 0
0.78 0.22 0
0.8 0.22 0
0.82 0.22 0
0.84 0.22 0
0.86 0.22 0
0.88 0.22 0
0.9 0.22 0
0.92 0.22 0
0.94 0.22 0
0.96 0.22 0
0.98 0.22 0
1 0.22 0
0 0.24 0
0.02 0.24 0
0.04 0.24 0
0.06 0.24 0
0.08 0.24 0
0.1 0.24 0
0.12 0.24 0
0.14 0.24 0
0.16 0.24 0
0.18 0.24 0
0.2 0.24 0
0.22 0.24 0
0.24 0.24 0
0.26 0.24 0
0.28 0.24 0
0.3 0.24 0
0.32 0.24 0
0.34 0.24 0
0.36 0.24 0
0.38 0.24 0
0.4 0.24 0
0.42 0.24 0
0.44 0.24 0
0.46 0.24 0
0.48 0.24 0
0.5 0.24 0
0.52 0.24 0
0.54 0.24 0
0.56 0.24 0
0.58 0.24 0
0.6 0.24 0
0.62 0.24 0
0.64 0.24 0
0.66 0.24 0
0.68 0.24 0
0.7 0.24 0
0.72 0.24 0
0.74 0.24 0
0.76 0.24 0
0.78 0.24 0
0.8 0.24 0
0.82 0.24 0
0.84 0.24 0
0.86 0.24 0
0.88 0.24 0
0.9 0.24 0
0.92 0.24 0
0.94 0.24 0
0.96 0.24 0
0.98 0.24 0
1 0.24 0
0 0.26 0
0.02 0.26 0
0.04 0.26 0
0.06 0.26 0
0.08 0.26 0
0.1 0.26 0
0.12 0.26 0
0.14 0.26 0
0.16 0.26 0
0.18 0.26 0
0.2 0.26 0
0.22 0.26 0
0.24 0.26 0
0.26 0.26 0
0.28 0.26 0
0.3 0.26 0
0.32 0.26 0
0.34 0.26 0
0.36 0.26 0
0.38 0.26 0
0.4 0.26 0
0.42 0.26 0
0.44 0.26 0
0.46 0.26 0
0.48 0.26 0
0.5 0.26 0
0.52 0.26 0
0.54 0.26 0
0.56 0.26 0
0.58 0.26 0
0.6 0.26 0
0.62 0.26 0
0.64 0.26 0
0.66 0.26 0
0.68 0.26 0
0.7 0.26 0
0.72 0.26 0
0.74 0.26 0
0.76 0.26 0
0.78 0.26 0
0.8 0.26 0
0.82 0.26 0
0.84 0.26 0
0.86 0.26 0
0.88 0.26 0
0.9 0.26 0
0.92 0.26 0
0.94 0.26 0
0.96 0.26 0
0.98 0.26 0
1 0.26 0
0 0.28 0
0.02 0.28 0
0.04 0.28 0
0.06 0.28 0
0.08 0.28 0
0.1 0.28 0
0.12 0.28 0
0.14 0.28 0
0.16 0.28 0
0.18 0.28 0
0.2 0.28 0
0.22 0.28 0
0.24 0.28 0
0.26 0.28 0
0.28 0.28 0
0.3 0.28 0
0.32 0.28 0
0.34 0.28 0
0.36 0.28 0
0.38 0.28 0
0.4 0.28 0
0.42 0.28 0
0.44 0.28 0
0.46 0.28 0
0.48 0.28 0
0.5 0.28 0
0.52 0.28 0
0.54 0.28 0
0.56 0.28 0
0.58 0.28 0
0.6 0.28 0
0.62 0.28 0
0.64 0.28 0
0.66 0.28 0
0.68 0.28 0
0.7 0.28 0
0.72 0.28 0
0.74 0.28 0
0.76 0.28 0
0.78 0.28 0
0.8 0.28 0
0.82 0.28 0
0.84 0.28 0
0.86 0.28 0
0.88 0.28 0
0.9 0.28 0
0.92 0.28 0
0.94 0.28 0
0.96 0.28 0
0.98 0.28 0
1 0.28 0
0 0.3 0
0.02 0.3 0
0.04 0.3 0
0.06 0.3 0
0.08 0.3 0
0.1 0.3 0
0.12 0.3 0
0.14 0.3 0
0.16 0.3 0
0.18 0.3 0
0.2 0.3 0
0.22 0.3 0
0.24 0.3 0
0.26 0.3 0
0.28 0.3 0
0.3 0.3 0
0.32 0.3 0
0.34 0.3 0
0.36 0.3 0
0.38 0.3 0
0.4 0.3 0
0.42 0.3 0
0.44 0.3 0
0.46 0.3 0
0.48 0.3 0
0.5 0.3 0
0.52 0.3 0
0.54 0.3 0
0.56 0.3 0
0.58 0.3 0
0.6 0.3 0
0.62 0.3 0
0.64 0.3 0
0.66 0.3 0
0.68 0.3 0
0.7 0.3 0
0.72 0.3 0
0.74 0.3 0
0.76 0.3 0
0.78 0.3 0
0.8 0.3 0
0.82 0.3 0
0.84 0.3 0
0.86 0.3 0
0.88 0.3 0
0.9 0.3 0
0.92 0.3 0
0.94 0.3 0
0.96 0.3 0
0.98 0.3 0
1 0.3 0
0 0.32 0
0.02 0.32 0
0.04 0.32 0
0.06 0.32 0
0.08 0.32 0
0.1 0.32 0
0.12 0.32 0
0.14 0.32 0
0.16 0.32 0
0.18 0.32 0
0.2 0.32 0
0.22 0.32 0
0.24 0.32 0
0.26 0.32 0
0.28 0.32 0
0.3 0.32 0
0.32 0.32 0
0.34 0.32 0
0.36 0.32 0
0.38 0.32 0
0.4 0.32 0
0.42 0.32 0
0.44 0.32 0
0.46 0.32 0
0.48 0.32 0
0.5 0.32 0
0.52 0.32 0
0.54 0.32 0
0.56 0.32 0
0.58 0.32 0
0.6 0.32 0
0.62 0.32 0
0.64 0.32 0
0.66 0.32 0
0.68 0.32 0
0.7 0.32 0
0.72 0.32 0
0.74 0.32 0
0.76 0.32 0
0.78 0.32 0
0.8 0.32 0
0.82 0.32 0
0.84 0.32 0
0.86 0.32 0
0.88 0.32 0
0.9 0.32 0
0.92 0.32 0
0.94 0.32 0
0.96 0.32 0
0.98 0.32 0
1 0.32 0
0 0.34 0
0.02 0.34 0
0.04 0.34 0
0.06 0.34 0
0.08 0.34 0
[...]
POINT_DATA 2601
SCALARS pressure float 1
LOOKUP_TABLE default
4.03427
4.03549
4.03798
4.04021
4.04136
4.04074
4.03808
4.03332
4.02661
4.01823
4.00854
3.9979
3.98668
3.97517
3.96362
3.9522
3.94103
3.93017
3.91965
3.90947
3.8996
3.89004
3.88076
3.87175
3.863
3.85453
3.84635
3.8385
3.831
3.82389
3.81722
3.81101
3.80531
3.80012
3.79547
3.79135
3.78778
3.78473
3.78219
3.78013
3.77855
3.77742
3.77673
3.77647
3.77662
3.77719
3.7781
3.77928
3.78052
3.78154
3.78197
4.03304
4.03426
4.03649
4.03824
4.03896
4.03804
4.03524
4.03049
4.02393
4.0158
4.00643
3.99615
3.98528
3.97411
3.96286
3.9517
3.94074
3.93005
3.91966
3.90958
3.89979
3.8903
3.88108
3.87212
3.86344
3.85503
3.84693
3.83916
3.83175
3.82474
3.81816
3.81205
3.80644
3.80134
3.79676
3.79271
3.78919
3.78618
3.78366
3.78162
3.78002
3.77887
3.77813
3.77779
3.77784
3.77826
3.779
3.77998
3.78103
3.78196
3.78239
4.03054
4.032
4.03425
4.03552
4.03576
4.03445
4.03143
4.02664
4.0202
4.01233
4.00331
3.99345
3.98303
3.9723
3.96147
3.95068
3.94005
3.92963
3.91946
3.90956
3.89991
3.89053
3.8814
3.87254
3.86394
3.85563
3.84763
3.83997
3.83269
3.82581
3.81938
3.81341
3.80794
3.80297
3.79852
3.79459
3.79116
3.78822
3.78576
3.78375
3.78216
3.78097
3.78017
3.77972
3.77963
3.77985
3.78035
3.7811
3.78194
3.7829
3.78344
4.02813
4.0301
4.03289
4.03419
4.03433
4.03282
4.02958
4.0246
4.01802
4.01009
4.00109
3.99132
3.98107
3.97055
3.95997
3.94944
3.93905
3.92886
3.91889
3.90915
3.89964
3.89036
3.88132
3.87251
3.86397
3.8557
3.84775
3.84014
3.83291
3.8261
3.81974
3.81386
3.80848
3.80361
3.79927
3.79544
3.79211
3.78926
3.78688
3.78492
3.78336
3.78219
3.78136
3.78087
3.78069
3.78082
3.78123
3.78191
3.78275
3.78394
3.78471
4.02639
4.02884
4.03218
4.03357
4.03361
4.03183
4.02824
4.0229
4.01601
4.00784
3.9987
3.98891
3.97874
3.96839
3.95803
3.94776
3.93765
3.92772
3.91799
3.90845
3.89909
3.88993
3.88096
3.8722
3.86367
3.85541
3.84745
3.83984
3.83262
3.82583
3.81951
3.81369
3.80839
3.80361
3.79937
3.79565
3.79243
3.7897
3.78741
3.78554
3.78405
3.78292
3.78211
3.78161
3.78139
3.78147
3.78182
3.7825
3.7834
3.78487
3.78588
4.02578
4.02864
4.03247
4.03391
4.03378
4.03161
4.02752
4.02163
4.01422
4.00563
3.99621
3.98627
3.97609
3.96587
3.95572
3.94572
3.9359
3.92626
3.91679
3.90747
3.89828
3.88923
3.88031
3.87156
3.86301
3.8547
3.84668
3.839
3.83172
3.82489
3.81855
3.81274
3.80747
3.80275
3.79859
3.79498
3.79188
3.78927
3.78711
3.78535
3.78397
3.78292
3.78217
3.7817
3.7815
3.78158
3.78194
3.78266
3.78365
3.7854
3.78664
4.02653
4.02971
4.03386
4.03521
4.03475
4.032
4.0272
4.02056
4.01247
4.00331
3.99349
3.98334
3.97313
3.96301
3.95309
3.94339
3.93391
3.9246
3.91542
3.90633
3.89732
3.88836
3.87948
3.8707
3.86207
3.85365
3.8455
3.83768
3.83027
3.82333
3.81691
3.81104
3.80575
3.80106
3.79696
3.79344
3.79045
3.78797
3.78595
3.78434
3.7831
3.78217
3.78152
3.78113
3.78098
3.7811
3.7815
3.78229
3.78337
3.78536
3.78679
4.02888
4.03228
4.03657
4.03765
4.03663
4.03308
4.02736
4.01979
4.01084
4.00101
3.99072
3.98032
3.97005
3.96005
3.95037
3.941
3.93186
3.9229
3.91403
3.90518
3.89633
3.88746
3.87858
3.86973
3.86097
3.85237
3.84401
3.83598
3.82836
3.82123
3.81464
3.80865
3.8033
3.79858
3.7945
3.79103
3.78814
3.78579
3.78392
3.78247
3.78138
3.7806
3.78008
3.77981
3.77976
3.77995
3.78041
3.78127
3.78243
3.78461
3.78618
4.03309
4.03659
4.04082
4.04141
4.03959
4.03502
4.02817
4.01949
4.00957
3.99897
3.98816
3.97749
3.96716
3.95729
3.94786
3.93881
3.93003
3.9214
3.91283
3.90421
3.8955
3.88668
3.87775
3.86878
3.85983
3.85099
3.84235
3.83404
3.82613
3.81873
3.81191
3.80573
3.80023
3.79542
3.79131
3.78786
3.78504
3.78279
3.78105
3.77976
3.77883
3.77822
3.77786
3.77772
3.77778
3.77807
3.7786
3.77952
3.78076
3.78305
3.78471
4.03952
4.043
4.04692
4.04678
4.04392
4.03809
4.02993
4.02
4.00903
3.99761
3.98624
3.97527
3.96487
3.9551
3.94589
3.93713
3.92867
3.92034
3.91202
3.90358
3.89496
3.88614
3.87713
3.86799
3.8588
3.84966
3.8407
3.83203
3.82377
3.81604
3.80891
3.80247
3.79675
3.79179
3.78758
3.78409
3.78128
3.7791
3.77746
3.7763
3.77552
3.77507
3.77486
3.77487
3.77505
3.77543
3.77604
3.77702
3.77829
3.78064
3.78233
4.04858
4.05188
4.05523
4.05411
4.04997
4.04269
4.03305
4.02178
4.00967
3.99739
3.98544
3.97413
3.9636
3.95386
3.94479
3.93624
3.928
3.91989
3.91172
3.90339
3.8948
3.88592
3.87678
3.86743
3.85796
3.84849
3.83916
3.83011
3.82146
3.81334
3.80586
3.79909
3.7931
3.78791
3.78353
3.77993
3.77708
3.77489
3.77331
3.77223
3.77157
3.77124
3.77117
3.7713
3.77159
3.77206
3.77272
3.77373
3.77501
3.77734
3.77902
4.06072
4.06366
4.06613
4.0638
4.05816
4.04927
4.03805
4.02535
4.01206
3.99885
3.98625
3.97451
3.96374
3.95389
3.94481
3.9363
3.92812
3.92007
3.91194
3.90359
3.89494
3.88594
3.87662
3.86703
3.85728
3.84749
3.8378
3.82837
3.81932
3.81081
3.80295
3.79583
3.78951
3.78405
3.77943
3.77566
3.77267
3.77042
3.7688
3.76774
3.76713
3.76687
3.76688
3.76709
3.76746
3.76798
3.76867
3.76967
3.77093
3.77319
3.77482
4.07643
4.07877
4.08004
4.07628
4.06896
4.05833
4.04544
4.03125
4.01669
4.00248
3.98908
3.97674
3.96552
3.95532
3.94598
3.93726
3.9289
3.92067
3.91238
3.90387
3.89504
3.88585
3.87632
3.8665
3.8565
3.84644
3.83646
3.82672
3.81735
3.8085
3.8003
3.79285
3.78621
3.78043
3.77554
3.77152
3.76834
3.76593
3.7642
3.76306
3.76241
3.76214
3.76215
3.76237
3.76274
3.76326
3.76393
3.76489
3.76608
3.76822
3.76975
4.09612
4.09761
4.09731
4.09193
4.0828
4.07034
4.0557
4.03994
4.024
4.00859
3.99417
3.98095
3.96894
3.95804
3.94805
3.93873
3.92983
3.92112
3.91239
3.9035
3.89435
3.8849
3.87514
3.86514
3.85498
3.84477
3.83466
3.82478
3.81526
3.80624
3.79784
3.79015
3.78327
3.77723
3.77207
3.76778
3.76433
3.76168
3.75974
3.75842
3.75762
3.75722
3.75713
3.75726
3.75756
3.75799
3.75857
3.75943
3.7605
3.76247
3.7639
4.12007
4.12043
4.11821
4.11106
4.1
4.08565
4.06918
4.0517
4.03418
4.0173
4.00149
3.98693
3.97362
3.96147
3.95029
3.93984
3.9299
3.92026
3.91074
3.90119
3.89153
3.88172
3.87174
3.86164
3.8515
3.84139
3.83142
3.8217
3.81235
3.80347
3.79516
3.7875
3.78057
3.77442
3.76908
3.76456
3.76085
3.75791
3.75567
3.75406
3.75298
3.75233
3.752
3.75192
3.75201
3.75226
3.75266
3.75334
3.75425
3.75601
3.75731
4.14837
4.1473
4.1428
4.13378
4.12071
4.10439
4.08596
4.06655
4.0471
4.02829
4.01052
3.99397
3.97865
3.9645
3.95136
3.93906
3.9274
3.91623
3.9054
3.89481
3.88439
3.8741
3.86393
3.85389
3.84402
3.83437
3.82499
3.81595
3.8073
3.79909
3.79138
3.78422
3.77764
3.7717
3.76643
3.76185
3.75796
3.75474
3.75216
3.75017
3.74869
3.74763
3.74691
3.74645
3.7462
3.74613
3.74624
3.74666
3.74735
3.74887
3.75003
4.1808
4.17799
4.17088
4.15991
4.14477
4.12638
4.10575
4.08404
4.06215
4.04074
4.0202
4.00073
3.98242
3.96525
3.94914
3.93398
3.91969
3.90617
3.89334
3.88118
3.86965
3.85874
3.8484
3.83862
3.8294
3.82073
3.8126
3.80498
3.79784
3.79115
3.78487
3.77898
3.77347
3.76835
3.76363
3.75934
3.75551
3.75215
3.74927
3.74685
3.74486
3.74326
3.74199
3.74098
3.74021
3.73967
3.73936
3.73942
3.73981
3.74107
3.7421
4.21671
4.21188
4.20185
4.1889
4.1716
4.15093
4.12775
4.10318
4.07809
4.0531
4.02868
4.00508
3.98247
3.96092
3.94049
3.92119
3.90305
3.88609
3.87036
3.85591
3.84279
3.83102
3.82053
3.81125
3.80316
3.79615
3.79014
3.78498
3.7805
3.77654
3.77293
3.76952
3.76621
3.76292
3.75961
3.75631
3.75304
3.74988
3.74688
3.74409
3.74156
3.7393
3.7373
3.73557
3.73409
3.7329
3.73202
3.73159
3.7316
3.73258
3.73347
4.25496
4.24783
4.23463
4.21966
4.20006
4.1768
4.15051
4.12225
4.09286
4.06303
4.03326
4.00394
3.97534
3.94771
3.92125
3.89615
3.87262
3.85085
3.83105
3.81338
3.79803
3.78505
3.77437
3.76583
3.75938
3.75485
3.75202
3.75061
3.75029
3.75071
3.7515
3.75233
3.75291
3.75301
3.75251
3.75135
3.74957
3.74728
3.74459
3.74168
3.73867
3.7357
3.73286
3.73021
3.72784
3.7258
3.72417
3.72312
3.72266
3.72331
3.72407
4.29379
4.28414
4.26755
4.25052
4.22838
4.20202
4.17177
4.13867
4.10358
4.06726
4.03031
3.99327
3.95661
3.92078
3.88623
3.85336
3.82263
3.79442
3.76915
3.74716
3.72874
3.71408
3.70305
3.69542
3.69109
3.68984
3.69133
3.69515
3.70075
3.70756
3.71495
3.72233
3.72913
3.73489
3.73928
3.74211
3.74335
3.74311
3.74159
3.73909
3.7359
3.7323
3.72855
3.72485
3.72138
3.71828
3.71572
3.71388
3.71283
3.71311
3.71373
4.33079
4.31844
4.29832
4.27911
4.254
4.22376
4.18841
4.14902
4.10647
4.06162
4.01526
3.96814
3.92101
3.8746
3.82964
3.78685
3.74694
3.71057
3.67835
3.65081
3.62841
3.61145
3.59977
3.59304
3.59115
3.59384
3.60068
3.61111
3.62441
3.63976
3.65624
3.67291
3.68885
3.70325
3.71542
3.72492
3.73152
3.73527
3.73642
3.73537
3.73263
3.72873
3.72415
3.71931
3.71457
3.71022
3.70651
3.70371
3.70193
3.70176
3.70223
4.36285
4.34771
4.32389
4.30223
4.27353
4.23837
4.19652
4.14905
4.09691
4.04117
3.98286
3.92307
3.86289
3.80343
3.74578
3.691
3.64009
3.59398
3.55348
3.5193
3.49203
3.47206
3.45926
3.45326
3.45387
3.46083
3.47366
3.49171
3.51413
3.53988
3.56778
3.59654
3.6248
3.65129
3.67485
3.69456
3.70985
3.72049
3.72666
3.72885
3.72779
3.7243
3.71922
3.71332
3.70721
3.70141
3.69633
3.69236
3.68969
3.68895
3.68923
4.38621
4.36819
4.34052
4.31604
4.28293
4.24159
4.19152
4.13386
4.06974
4.00053
3.92765
3.85261
3.77696
3.70226
3.63001
3.56162
3.49839
3.44144
3.39178
3.35024
3.31746
3.29389
3.2795
3.2739
3.27676
3.28786
3.30674
3.33274
3.36494
3.4022
3.44313
3.48616
3.52956
3.57153
3.61033
3.6444
3.67254
3.69403
3.70869
3.71692
3.7196
3.71789
3.71307
3.70641
3.69894
3.69155
3.68489
3.67952
3.67576
3.6743
3.67431
4.39649
4.37559
4.34391
4.31609
4.27755
4.22853
4.16829
4.09817
4.01962
3.93442
3.84454
3.75206
3.65908
3.56765
3.47967
3.39688
3.32079
3.2527
3.19368
3.14461
3.10615
3.07873
3.06245
3.05685
3.06152
3.07628
3.10071
3.13421
3.17589
3.22462
3.27898
3.33725
3.39745
3.45738
3.5147
3.56714
3.61267
3.64971
3.67741
3.6957
3.70532
3.70769
3.70459
3.6979
3.68933
3.6803
3.67185
3.66483
3.65973
3.65734
3.65698
4.38909
4.36536
4.32954
4.29772
4.25255
4.19414
4.12167
4.03685
3.94157
3.83826
3.72956
3.61824
3.50698
3.39832
3.29452
3.19754
3.10902
3.03031
2.96248
2.90638
2.8626
2.83155
2.81336
2.80755
2.81361
2.8314
2.86056
2.90056
2.95063
3.00975
3.07661
3.14955
3.22654
3.30521
3.38283
3.45651
3.52332
3.58065
3.62653
3.65992
3.68098
3.69096
3.69201
3.68674
3.67772
3.66718
3.65681
3.64785
3.64113
3.63752
3.63666
4.35904
4.33254
4.29236
4.25576
4.20272
4.13329
4.04674
3.94529
3.83153
3.70872
3.58033
3.44983
3.32049
3.19523
3.07656
2.96654
2.86684
2.77877
2.70331
2.6412
2.59295
2.55887
2.5391
2.53314
2.5404
2.56073
2.59382
2.6392
2.69625
2.76409
2.84162
2.92739
3.01955
3.11583
3.21345
3.30917
3.39944
3.48062
3.54942
3.60337
3.64134
3.66378
3.67273
3.67133
3.66316
3.65157
3.63925
3.62811
3.61943
3.61425
3.61268
4.30195
4.27286
4.22825
4.18606
4.12383
4.04176
3.93948
3.82
3.6868
3.54411
3.39626
3.24739
3.10124
2.96099
2.82923
2.70802
2.59895
2.5032
2.42163
2.35485
2.30323
2.267
2.24627
2.2405
2.24904
2.2717
2.3082
2.35811
2.42088
2.49581
2.58199
2.67824
2.78303
2.89439
3.00981
3.12614
3.23961
3.34595
3.44074
3.51988
3.5804
3.6211
3.64303
3.64926
3.64423
3.63263
3.61858
3.60504
3.59404
3.58685
3.58432
4.21278
4.18117
4.13185
4.08335
4.01105
3.91543
3.79663
3.65866
3.50612
3.34429
3.17831
3.0129
2.85207
2.6991
2.55653
2.42632
2.30989
2.20829
2.12221
2.05214
1.99834
1.96093
1.93998
1.93492
1.94504
1.97014
2.00988
2.06387
2.13159
2.21244
2.30566
2.41029
2.52513
2.6486
2.77862
2.91249
3.04669
3.17692
3.29813
3.40497
3.49251
3.55725
3.59814
3.61714
3.6188
3.60913
3.59399
3.57797
3.56429
3.55458
3.55079
4.08903
4.0553
4.00153
3.94609
3.86271
3.75257
3.61679
3.4606
3.28974
3.11047
2.92859
2.74916
2.57628
2.41317
2.26223
2.12523
2.00342
1.89769
1.80862
1.73655
1.68166
1.64402
1.62362
1.61986
1.63203
1.65986
1.70299
1.76099
1.83337
1.91954
2.01882
2.13041
2.25333
2.38634
2.52784
2.67567
2.82692
2.97773
3.12318
3.25737
3.37394
3.46705
3.53279
3.57062
3.58393
3.57927
3.56442
3.54611
3.52942
3.51662
3.5112
3.92561
3.88968
3.83109
3.7685
3.67435
3.55041
3.39873
3.22588
3.03882
2.84468
2.64973
2.45918
2.27707
2.10642
1.94944
1.8077
1.68229
1.57396
1.48318
1.41025
1.35526
1.31824
1.29913
1.29731
1.31207
1.34307
1.38993
1.45217
1.52927
1.62064
1.7256
1.84342
1.97325
2.11408
2.26466
2.42333
2.58787
2.75514
2.92091
3.07954
3.22418
3.34731
3.44221
3.50484
3.53577
3.54058
3.52841
3.50849
3.48859
3.4721
3.46463
3.72384
3.6865
3.62406
3.55418
3.44869
3.31079
3.14402
2.95629
2.75554
2.54947
2.34452
2.14581
1.95717
1.7814
1.62047
1.47577
1.34828
1.23864
1.14728
1.07446
1.02025
0.984637
0.967514
0.968278
0.986217
1.02095
1.07202
1.13892
1.22108
1.31784
1.42852
1.55238
1.68861
1.83633
1.99449
2.16181
2.33661
2.51653
2.69822
2.8769
3.04615
3.19794
3.32353
3.4154
3.46998
3.48988
3.484
3.46391
3.44088
3.42005
3.41007
3.47737
3.43821
3.37132
3.29478
3.18008
3.03103
2.85228
2.65297
2.44191
2.22724
2.01543
1.81141
1.61874
1.43997
1.27689
1.13074
1.00243
0.89258
0.801597
0.729734
0.677093
0.643637
0.629189
0.633196
0.65498
0.694063
0.749954
0.822082
0.909798
1.0124
1.12913
1.25921
1.40181
1.55608
1.72108
1.89575
2.07878
2.26841
2.46215
2.65628
2.8454
3.02204
3.17678
3.29957
3.38251
3.42347
3.42877
3.41095
3.38527
3.35954
3.34656
3.19325
3.15363
3.08429
3.00154
2.87726
2.71727
2.52787
2.31929
2.10082
1.88056
1.66472
1.45791
1.26337
1.08341
0.919674
0.773344
0.645291
0.53615
0.446376
0.376257
0.325929
0.295363
0.284336
0.292311
0.318634
0.36277
0.424172
0.5022
0.596125
0.70516
0.828472
0.965197
1.11446
1.27536
1.447
1.6284
1.81848
2.0159
2.21879
2.42442
2.62862
2.82509
3.005
3.15729
3.27072
3.33782
3.35989
3.34794
3.32081
3.28974
3.2732
2.86161
2.82049
2.74756
2.6602
2.53041
2.36434
2.16907
1.9556
1.73356
1.51103
1.29395
1.08665
0.892113
0.712505
0.549385
0.403932
0.277052
0.16945
0.0816509
0.0140177
-0.0332615
-0.060187
-0.0669913
-0.0542566
-0.0226365
0.0273344
0.0950398
0.179753
0.280652
0.396849
0.527412
0.671383
0.827797
0.995697
1.17413
1.36215
1.55875
1.76282
1.97297
2.18718
2.40237
2.61366
2.81353
2.9914
3.13436
3.23043
3.27459
3.27314
3.24658
3.20994
3.18925
2.4969
2.45646
2.3832
2.292
2.15604
1.98371
1.78349
1.56691
1.34351
1.12097
0.904748
0.698758
0.505754
0.32776
0.166317
0.0226495
-0.102245
-0.207556
-0.292646
-0.357057
-0.400528
-0.423022
-0.424774
-0.406425
-0.368637
-0.311937
-0.237024
-0.144726
-0.0359729
0.0882312
0.226838
0.37878
0.54299
0.718419
0.904043
1.09887
1.30192
1.51217
1.72846
1.94931
2.17245
2.39428
2.60888
2.80704
2.97593
3.10088
3.17084
3.18492
3.16197
3.11986
3.09446
2.0825
2.04068
1.96506
1.87267
1.73648
1.56441
1.36523
1.15063
0.929965
0.710568
0.497598
0.294752
0.104689
-0.0705665
-0.229403
-0.370477
-0.492648
-0.594953
-0.676613
-0.737047
-0.775907
-0.793111
-0.788908
-0.764008
-0.719072
-0.654626
-0.571473
-0.470562
-0.352954
-0.219784
-0.0722303
0.0885156
0.261273
0.444889
0.638252
0.840298
1.05
1.26637
1.48834
1.7147
1.94378
2.17294
2.39774
2.61075
2.80043
2.95141
3.04827
3.08226
3.06682
3.01989
2.98921
1.6426
1.60271
1.52929
1.43616
1.29822
1.12543
0.927182
0.715071
0.498018
0.28284
0.0742412
-0.12439
-0.310543
-0.482201
-0.637665
-0.775441
-0.894211
-0.992825
-1.07033
-1.126
-1.15938
-1.17035
-1.15923
-1.12674
-1.07351
-1.00015
-0.907572
-0.796879
-0.669283
-0.526071
-0.368564
-0.198089
-0.0159471
0.176601
0.37835
0.588154
0.804927
1.02763
1.25523
1.48664
1.72051
1.95489
2.18648
2.40957
2.61454
2.78685
2.90899
2.96545
2.96175
2.91128
2.87469
1.14914
1.10759
1.03334
0.943794
0.811904
0.646112
0.455629
0.25176
0.0429121
-0.164599
-0.366352
-0.559023
-0.740009
-0.907124
-1.05845
-1.19226
-1.30698
-1.40122
-1.47383
-1.52391
-1.55086
-1.55454
-1.53542
-1.49417
-1.43133
-1.34769
-1.24434
-1.12254
-0.983684
-0.829233
-0.660668
-0.479459
-0.28703
-0.0847482
0.126092
0.344268
0.568626
0.798076
1.03156
1.26802
1.50625
1.7447
1.98088
2.21049
2.42584
2.61422
2.75792
2.83698
2.84873
2.79658
2.75352
0.640337
0.60202
0.532399
0.445348
0.316746
0.156274
-0.0274268
-0.223857
-0.425227
-0.625556
-0.820614
-1.00718
-1.18266
-1.34479
-1.49149
-1.6208
-1.73089
-1.82012
-1.88708
-1.93067
-1.95017
-1.94538
-1.91696
-1.86553
-1.79159
-1.69614
-1.58048
-1.44607
-1.29454
-1.12754
-0.946734
-0.753728
-0.550073
-0.337231
-0.116575
0.110613
0.343129
0.579838
0.819651
1.06149
1.3042
1.54641
1.78616
2.02011
2.24227
2.44198
2.60272
2.70238
2.73191
2.6802
2.63045
0.0693571
0.0286932
-0.0395586
-0.11647
-0.231918
-0.378708
-0.548447
-0.731075
-0.919425
-1.10808
-1.29307
-1.47117
-1.63955
-1.79561
-1.93688
-2.06104
-2.16588
-2.24942
-2.30993
-2.34606
-2.35694
-2.34232
-2.30306
-2.23982
-2.15304
-2.04401
-1.91427
-1.7656
-1.59984
-1.41889
-1.22459
-1.0187
-0.80288
-0.578673
-0.347502
-0.110682
0.130563
0.375081
0.621772
0.869544
1.11726
1.36363
1.60694
1.84452
2.0716
2.27945
2.4533
2.57072
2.61865
2.56946
2.51361
-0.503234
-0.539678
-0.601639
-0.672949
-0.779202
-0.913775
-1.07045
-1.24069
-1.41809
-1.59735
-1.77426
-1.94529
-2.10737
-2.2577
-2.39358
-2.51237
-2.61156
-2.68879
-2.74202
-2.76963
-2.77055
-2.74453
-2.69265
-2.61563
-2.51398
-2.3893
-2.2435
-2.0787
-1.89705
-1.70068
-1.49163
-1.27181
-1.04295
-0.806645
-0.564338
-0.317338
-0.0668449
0.186021
0.440189
0.694601
0.948151
1.1996
1.44739
1.68924
1.92124
2.13624
2.3212
2.45456
2.52068
2.47631
2.41629
-1.15517
-1.19462
-1.25106
-1.30295
-1.38815
-1.50257
-1.63961
-1.79103
-1.95095
-2.1146
-2.27808
-2.43791
-2.59077
-2.73339
-2.86254
-2.97502
-3.06775
-3.13787
-3.18283
-3.20065
-3.19006
-3.15075
-3.0841
-2.99098
-2.87203
-2.72933
-2.56525
-2.38231
-2.18303
-1.96978
-1.7448
-1.51009
-1.26745
-1.01846
-0.764528
-0.506911
-0.24673
0.0149843
0.277257
0.539123
0.799575
1.05748
1.31141
1.5594
1.79816
2.02177
2.21883
2.36921
2.45459
2.41928
2.35896
-1.78804
-1.82391
-1.87431
-1.91682
-1.9851
-2.07906
-2.19579
-2.32897
-2.47369
-2.62532
-2.77957
-2.93211
-3.07885
-3.21596
-3.33977
-3.44664
-3.53304
-3.5956
-3.63136
-3.63798
-3.61398
-3.55912
-3.47509
-3.36303
-3.22392
-3.06048
-2.87568
-2.67252
-2.45389
-2.22243
-1.9805
-1.73016
-1.4732
-1.21112
-0.945249
-0.676696
-0.406444
-0.135368
0.135721
0.406032
0.674737
0.940897
1.20333
1.46038
1.70936
1.94547
2.15889
2.33153
2.44144
2.42427
2.37049
-2.53201
-2.56931
-2.60484
-2.61515
-2.65424
-2.72228
-2.81454
-2.92474
-3.04799
-3.17998
-3.3168
-3.45449
-3.58897
-3.71597
-3.8311
-3.92994
-4.00814
-4.06155
-4.08643
-4.07983
-4.03995
-3.96669
-3.86211
-3.72769
-3.56509
-3.37789
-3.16981
-2.94439
-2.70489
-2.45414
-2.19455
-1.92815
-1.65659
-1.38123
-1.1032
-0.823392
-0.542578
-0.261407
0.0195412
0.299716
0.578551
0.8554
1.12943
1.39948
1.66353
1.91806
2.15507
2.35946
2.50531
2.52354
2.48763
-3.22012
-3.25987
-3.29358
-3.28727
-3.29883
-3.33694
-3.40117
-3.48657
-3.5888
-3.70397
-3.8284
-3.9577
-4.08659
-4.2094
-4.32058
-4.41482
-4.4869
-4.53181
-4.54508
-4.52326
-4.46447
-4.36946
-4.24036
-4.07915
-3.88913
-3.67496
-3.44113
-3.19173
-2.93027
-2.65962
-2.3821
-2.09952
-1.81329
-1.52446
-1.23385
-0.94207
-0.649602
-0.356818
-0.0640278
0.228495
0.520485
0.811646
1.10159
1.38976
1.67505
1.95546
2.22534
2.47402
2.67308
2.7537
2.75274
-4.07926
-4.10836
-4.10462
-4.05162
-4.02792
-4.03651
-4.07395
-4.13511
-4.21465
-4.30778
-4.41063
-4.51953
-4.63039
-4.73807
-4.83641
-4.91873
-4.97843
-5.00933
-5.00593
-4.96399
-4.88136
-4.75964
-4.60101
-4.40821
-4.18685
-3.94278
-3.68131
-3.40693
-3.12313
-2.83259
-2.53722
-2.23839
-1.93703
-1.63378
-1.32903
-1.02306
-0.716035
-0.408049
-0.0991655
0.210586
0.521202
0.832708
1.14515
1.4586
1.77298
2.08809
2.40111
2.70753
2.9798
3.15782
3.21468
-4.81102
-4.85884
-4.86215
-4.77715
-4.71256
-4.68245
-4.68614
-4.71797
-4.77156
-4.84163
-4.92464
-5.01806
-5.1187
-5.22088
-5.31632
-5.39588
-5.45095
-5.47341
-5.45596
-5.39321
-5.28314
-5.12843
-4.93309
-4.70279
-4.44591
-4.1697
-3.87993
-3.58078
-3.27513
-2.96482
-2.65097
-2.33422
-2.0149
-1.69315
-1.36899
-1.04241
-0.713368
-0.381805
-0.0476591
0.289151
0.628749
0.971336
1.31724
1.66702
2.02145
2.38204
2.74899
3.12516
3.48829
3.80149
3.9429
-5.82672
-5.81783
-5.73148
-5.59403
-5.49472
-5.43664
-5.41755
-5.43139
-5.47023
-5.52635
-5.59297
-5.66493
-5.73917
-5.81334
-5.88275
-5.93851
-5.96868
-5.96114
-5.90651
-5.80003
-5.64291
-5.44109
-5.20171
-4.93304
-4.64353
-4.33942
-4.02494
-3.70271
-3.37423
-3.04025
-2.70114
-2.35701
-2.00789
-1.65379
-1.29471
-0.930668
-0.561709
-0.187885