# vtk DataFile Version 2.0

ASCII
DATASET STRUCTURED_GRID
DIMENSIONS 51 51 1
POINTS 2601 float
0 0 0
0.02 0 0
0.04 0 0
0.06 0 0
0.08 0 0
0.1 0 0
0.12 0 0
0.14 0 0
0.16 0 0
0.18 0 0
0.2 0 0
0.22 0 0
0.24 0 0
0.26 0 0
0.28 0 0
0.3 0 0
0.32 0 0
0.34 0 0
0.36 0 0
0.38 0 0
0.4 0 0
0.42 0 0
0.44 0 0
0.46 0 0
0.48 0 0
0.5 0 0
0.52 0 0
0.54 0 0
0.56 0 0
0.58 0 0
0.6 0 0
0.62 0 0
0.64 0 0
0.66 0 0
0.68 0 0
0.7 0 0
0.72 0 0
0.74 0 0
0.76 0 0
0.78 0 0
0.8 0 0
0.82 0 0
0.84 0 0
0.86 0 0
0.88 0 0
0.9 0 0
0.92 0 0
0.94 0 0
0.96 0 0
0.98 0 0
1 0 0
0 0.02 0
0.02 0.02 0
0.04 0.02 0
0.06 0.02 0
0.08 0.02 0
0.1 0.02 0
0.12 0.02 0
0.14 0.02 0
0.16 0.02 0
0.18 0.02 0
0.2 0.02 0
0.22 0.02 0
0.24 0.02 0
0.26 0.02 0
0.28 0.02 0
0.3 0.02 0
0.32 0.02 0
0.34 0.02 0
0.36 0.02 0
0.38 0.02 0
0.4 0.02 0
0.42 0.02 0
0.44 0.02 0
0.46 0.02 0
0.48 0.02 0
0.5 0.02 0
0.52 0.02 0
0.54 0.02 0
0.56 0.02 0
0.58 0.02 0
0.6 0.02 0
0.62 0.02 0
0.64 0.02 0
0.66 0.02 0
0.68 0.02 0
0.7 0.02 0
0.72 0.02 0
0.74 0.02 0
0.76 0.02 0
0.78 0.02 0
0.8 0.02 0
0.82 0.02 0
0.84 0.02 0
0.86 0.02 0
0.88 0.02 0
0.9 0.02 0
0.92 0.02 0
0.94 0.02 0
0.96 0.02 0
0.98 0.02 0
1 0.02 0
0 0.04 0
0.02 0.04 0
0.04 0.04 0
0.06 0.04 0
0.08 0.04 0
0.1 0.04 0
0.12 0.04 0
0.14 0.04 0
0.16 0.04 0
0.18 0.04 0
0.2 0.04 0
0.22 0.04 0
0.24 0.04 0
0.26 0.04 0
0.28 0.04 0
0.3 0.04 0
0.32 0.04 0
0.34 0.04 0
0.36 0.04 0
0.38 0.04 0
0.4 0.04 0
0.42 0.04 0
0.44 0.04 0
0.46 0.04 0
0.48 0.04 0
0.5 0.04 0
0.52 0.04 0
0.54 0.04 0
0.56 0.04 0
0.58 0.04 0
0.6 0.04 0
0.62 0.04 0
0.64 0.04 0
0.66 0.04 0
0.68 0.04 0
0.7 0.04 0
0.72 0.04 0
0.74 0.04 0
0.76 0.04 0
0.78 0.04 0
0.8 0.04 0
0.82 0.04 0
0.84 0.04 0
0.86 0.04 0
0.88 0.04 0
0.9 0.04 0
0.92 0.04 0
0.94 0.04 0
0.96 0.04 0
0.98 0.04 0
1 0.04 0
0 0.06 0
0.02 0.06 0
0.04 0.06 0
0.06 0.06 0
0.08 0.06 0
0.1 0.06 0
0.12 0.06 0
0.14 0.06 0
0.16 0.06 0
0.18 0.06 0
0.2 0.06 0
0.22 0.06 0
0.24 0.06 0
0.26 0.06 0
0.28 0.06 0
0.3 0.06 0
0.32 0.06 0
0.34 0.06 0
0.36 0.06 0
0.38 0.06 0
0.4 0.06 0
0.42 0.06 0
0.44 0.06 0
0.46 0.06 0
0.48 0.06 0
0.5 0.06 0
0.52 0.06 0
0.54 0.06 0
0.56 0.06 0
0.58 0.06 0
0.6 0.06 0
0.62 0.06 0
0.64 0.06 0
0.66 0.06 0
0.68 0.06 0
0.7 0.06 0
0.72 0.06 0
0.74 0.06 0
0.76 0.06 0
0.78 0.06 0
0.8 0.06 0
0.82 0.06 0
0.84 0.06 0
0.86 0.06 0
0.88 0.06 0
0.9 0.06 0
0.92 0.06 0
0.94 0.06 0
0.96 0.06 0
0.98 0.06 0
1 0.06 0
0 0.08 0
0.02 0.08 0
0.04 0.08 0
0.06 0.08 0
0.08 0.08 0
0.1 0.08 0
0.12 0.08 0
0.14 0.08 0
0.16 0.08 0
0.18 0.08 0
0.2 0.08 0
0.22 0.08 0
0.24 0.08 0
0.26 0.08 0
0.28 0.08 0
0.3 0.08 0
0.32 0.08 0
0.34 0.08 0
0.36 0.08 0
0.38 0.08 0
0.4 0.08 0
0.42 0.08 0
0.44 0.08 0
0.46 0.08 0
0.48 0.08 0
0.5 0.08 0
0.52 0.08 0
0.54 0.08 0
0.56 0.08 0
0.58 0.08 0
0.6 0.08 0
0.62 0.08 0
0.64 0.08 0
0.66 0.08 0
0.68 0.08 0
0.7 0.08 0
0.72 0.08 0
0.74 0.08 0
0.76 0.08 0
0.78 0.08 0
0.8 0.08 0
0.82 0.08 0
0.84 0.08 0
0.86 0.08 0
0.88 0.08 0
0.9 0.08 0
0.92 0.08 0
0.94 0.08 0
0.96 0.08 0
0.98 0.08 0
1 0.08 0
0 0.1 0
0.02 0.1 0
0.04 0.1 0
0.06 0.1 0
0.08 0.1 0
0.1 0.1 0
0.12 0.1 0
0.14 0.1 0
0.16 0.1 0
0.18 0.1 0
0.2 0.1 0
0.22 0.1 0
0.24 0.1 0
0.26 0.1 0
0.28 0.1 0
0.3 0.1 0
0.32 0.1 0
0.34 0.1 0
0.36 0.1 0
0.38 0.1 0
0.4 0.1 0
0.42 0.1 0
0.44 0.1 0
0.46 0.1 0
0.48 0.1 0
0.5 0.1 0
0.52 0.1 0
0.54 0.1 0
0.56 0.1 0
0.58 0.1 0
0.6 0.1 0
0.62 0.1 0
0.64 0.1 0
0.66 0.1 0
0.68 0.1 0
0.7 0.1 0
0.72 0.1 0
0.74 0.1 0
0.76 0.1 0
0.78 0.1 0
0.8 0.1 0
0.82 0.1 0
0.84 0.1 0
0.86 0.1 0
0.88 0.1 0
0.9 0.1 0
0.92 0.1 0
0.94 0.1 0
0.96 0.1 0
0.98 0.1 0
1 0.1 0
0 0.12 0
0.02 0.12 0
0.04 0.12 0
0.06 0.12 0
0.08 0.12 0
0.1 0.12 0
0.12 0.12 0
0.14 0.12 0
0.16 0.12 0
0.18 0.12 0
0.2 0.12 0
0.22 0.12 0
0.24 0.12 0
0.26 0.12 0
0.28 0.12 0
0.3 0.12 0
0.32 0.12 0
0.34 0.12 0
0.36 0.12 0
0.38 0.12 0
0.4 0.12 0
0.42 0.12 0
0.44 0.12 0
0.46 0.12 0
0.48 0.12 0
0.5 0.12 0
0.52 0.12 0
0.54 0.12 0
0.56 0.12 0
0.58 0.12 0
0.6 0.12 0
0.62 0.12 0
0.64 0.12 0
0.66 0.12 0
0.68 0.12 0
0.7 0.12 0
0.72 0.12 0
0.74 0.12 0
0.76 0.12 0
0.78 0.12 0
0.8 0.12 0
0.82 0.12 0
0.84 0.12 0
0.86 0.12 0
0.88 0.12 0
0.9 0.12 0
0.92 0.12 0
0.94 0.12 0
0.96 0.12 0
0.98 0.12 0
1 0.12 0
0 0.14 0
0.02 0.14 0
0.04 0.14 0
0.06 0.14 0
0.08 0.14 0
0.1 0.14 0
0.12 0.14 0
0.14 0.14 0
0.16 0.14 0
0.18 0.14 0
0.2 0.14 0
0.22 0.14 0
0.24 0.14 0
0.26 0.14 0
0.28 0.14 0
0.3 0.14 0
0.32 0.14 0
0.34 0.14 0
0.36 0.14 0
0.38 0.14 0
0.4 0.14 0
0.42 0.14 0
0.44 0.14 0
0.46 0.14 0
0.48 0.14 0
0.5 0.14 0
0.52 0.14 0
0.54 0.14 0
0.56 0.14 0
0.58 0.14 0
0.6 0.14 0
0.62 0.14 0
0.64 0.14 0
0.66 0.14 0
0.68 0.14 0
0.7 0.14 0
0.72 0.14 0
0.74 0.14 0
0.76 0.14 0
0.78 0.14 0
0.8 0.14 0
0.82 0.14 0
0.84 0.14 0
0.86 0.14 0
0.88 0.14 0
0.9 0.14 0
0.92 0.14 0
0.94 0.14 0
0.96 0.14 0
0.98 0.14 0
1 0.14 0
0 0.16 0
0.02 0.16 0
0.04 0.16 0
0.06 0.16 0
0.08 0.16 0
0.1 0.16 0
0.12 0.16 0
0.14 0.16 0
0.16 0.16 0
0.18 0.16 0
0.2 0.16 0
0.22 0.16 0
0.24 0.16 0
0.26 0.16 0
0.28 0.16 0
0.3 0.16 0
0.32 0.16 0
0.34 0.16 0
0.36 0.16 0
0.38 0.16 0
0.4 0.16 0
0.42 0.16 0
0.44 0.16 0
0.46 0.16 0
0.48 0.16 0
0.5 0.16 0
0.52 0.16 0
0.54 0.16 0
0.56 0.16 0
0.58 0.16 0
0.6 0.16 0
0.62 0.16 0
0.64 0.16 0
0.66 0.16 0
0.68 0.16 0
0.7 0.16 0
0.72 0.16 0
0.74 0.16 0
0.76 0.16 0
0.78 0.16 0
0.8 0.16 0
0.82 0.16 0
0.84 0.16 0
0.86 0.16 0
0.88 0.16 0
0.9 0.16 0
0.92 0.16 0
0.94 0.16 0
0.96 0.16 0
0.98 0.16 0
1 0.16 0
0 0.18 0
0.02 0.18 0
0.04 0.18 0
0.06 0.18 0
0.08 0.18 0
0.1 0.18 0
0.12 0.18 0
0.14 0.18 0
0.16 0.18 0
0.18 0.18 0
0.2 0.18 0
0.22 0.18 0
0.24 0.18 0
0.26 0.18 0
0.28 0.18 0
0.3 0.18 0
0.32 0.18 0
0.34 0.18 0
0.36 0.18 0
0.38 0.18 0
0.4 0.18 0
0.42 0.18 0
0.44 0.18 0
0.46 0.18 0
0.48 0.18 0
0.5 0.18 0
0.52 0.18 0
0.54 0.18 0
0.56 0.18 0
0.58 0.18 0
0.6 0.18 0
0.62 0.18 0
0.64 0.18 0
0.66 0.18 0
0.68 0.18 0
0.7 0.18 0
0.72 0.18 0
0.74 0.18 0
0.76 0.18 0
0.78 0.18 0
0.8 0.18 0
0.82 0.18 0
0.84 0.18 0
0.86 0.18 0
0.88 0.18 0
0.9 0.18 0
0.92 0.18 0
0.94 0.18 0
0.96 0.18 0
0.98 0.18 0
1 0.18 0
0 0.2 0
0.02 0.2 0
0.04 0.2 0
0.06 0.2 0
0.08 0.2 0
0.1 0.2 0
0.12 0.2 0
0.14 0.2 0
0.16 0.2 0
0.18 0.2 0
0.2 0.2 0
0.22 0.2 0
0.24 0.2 0
0.26 0.2 0
0.28 0.2 0
0.3 0.2 0
0.32 0.2 0
0.34 0.2 0
0.36 0.2 0
0.38 0.2 0
0.4 0.2 0
0.42 0.2 0
0.44 0.2 0
0.46 0.2 0
0.48 0.2 0
0.5 0.2 0
0.52 0.2 0
0.54 0.2 0
0.56 0.2 0
0.58 0.2 0
0.6 0.2 0
0.62 0.2 0
0.64 0.2 0
0.66 0.2 0
0.68 0.2 0
0.7 0.2 0
0.72 0.2 0
0.74 0.2 0
0.76 0.2 0
0.78 0.2 0
0.8 0.2 0
0.82 0.2 0
0.84 0.2 0
0.86 0.2 0
0.88 0.2 0
0.9 0.2 0
0.92 0.2 0
0.94 0.2 0
0.96 0.2 0
0.98 0.2 0
1 0.2 0
0 0.22 0
0.02 0.22 0
0.04 0.22 0
0.06 0.22 0
0.08 0.22 0
0.1 0.22 0
0.12 0.22 0
0.14 0.22 0
0.16 0.22 0
0.18 0.22 0
0.2 0.22 0
0.22 0.22 0
0.24 0.22 0
0.26 0.22 0
0.28 0.22 0
0.3 0.22 0
0.32 0.22 0
0.34 0.22 0
0.36 0.22 0
0.38 0.22 0
0.4 0.22 0
0.42 0.22 0
0.44 0.22 0
0.46 0.22 0
0.48 0.22 0
0.5 0.22 0
0.52 0.22 0
0.54 0.22 0
0.56 0.22 0
0.58 0.22 0
0.6 0.22 0
0.62 0.22 0
0.64 0.22 0
0.66 0.22 0
0.68 0.22 0
0.7 0.22 0
0.72 0.22 0
0.74 0.22 0
0.76 0.22 0
0.78 0.22 0
0.8 0.22 0
0.82 0.22 0
0.84 0.22 0
0.86 0.22 0
0.88 0.22 0
0.9 0.22 0
0.92 0.22 0
0.94 0.22 0
0.96 0.22 0
0.98 0.22 0
1 0.22 0
0 0.24 0
0.02 0.24 0
0.04 0.24 0
0.06 0.24 0
0.08 0.24 0
0.1 0.24 0
0.12 0.24 0
0.14 0.24 0
0.16 0.24 0
0.18 0.24 0
0.2 0.24 0
0.22 0.24 0
0.24 0.24 0
0.26 0.24 0
0.28 0.24 0
0.3 0.24 0
0.32 0.24 0
0.34 0.24 0
0.36 0.24 0
0.38 0.24 0
0.4 0.24 0
0.42 0.24 0
0.44 0.24 0
0.46 0.24 0
0.48 0.24 0
0.5 0.24 0
0.52 0.24 0
0.54 0.24 0
0.56 0.24 0
0.58 0.24 0
0.6 0.24 0
0.62 0.24 0
0.64 0.24 0
0.66 0.24 0
0.68 0.24 0
0.7 0.24 0
0.72 0.24 0
0.74 0.24 0
0.76 0.24 0
0.78 0.24 0
0.8 0.24 0
0.82 0.24 0
0.84 0.24 0
0.86 0.24 0
0.88 0.24 0
0.9 0.24 0
0.92 0.24 0
0.94 0.24 0
0.96 0.24 0
0.98 0.24 0
1 0.24 0
0 0.26 0
0.02 0.26 0
0.04 0.26 0
0.06 0.26 0
0.08 0.26 0
0.1 0.26 0
0.12 0.26 0
0.14 0.26 0
0.16 0.26 0
0.18 0.26 0
0.2 0.26 0
0.22 0.26 0
0.24 0.26 0
0.26 0.26 0
0.28 0.26 0
0.3 0.26 0
0.32 0.26 0
0.34 0.26 0
0.36 0.26 0
0.38 0.26 0
0.4 0.26 0
0.42 0.26 0
0.44 0.26 0
0.46 0.26 0
0.48 0.26 0
0.5 0.26 0
0.52 0.26 0
0.54 0.26 0
0.56 0.26 0
0.58 0.26 0
0.6 0.26 0
0.62 0.26 0
0.64 0.26 0
0.66 0.26 0
0.68 0.26 0
0.7 0.26 0
0.72 0.26 0
0.74 0.26 0
0.76 0.26 0
0.78 0.26 0
0.8 0.26 0
0.82 0.26 0
0.84 0.26 0
0.86 0.26 0
0.88 0.26 0
0.9 0.26 0
0.92 0.26 0
0.94 0.26 0
0.96 0.26 0
0.98 0.26 0
1 0.26 0
0 0.28 0
0.02 0.28 0
0.04 0.28 0
0.06 0.28 0
0.08 0.28 0
0.1 0.28 0
0.12 0.28 0
0.14 0.28 0
0.16 0.28 0
0.18 0.28 0
0.2 0.28 0
0.22 0.28 0
0.24 0.28 0
0.26 0.28 0
0.28 0.28 0
0.3 0.28 0
0.32 0.28 0
0.34 0.28 0
0.36 0.28 0
0.38 0.28 0
0.4 0.28 0
0.42 0.28 0
0.44 0.28 0
0.46 0.28 0
0.48 0.28 0
0.5 0.28 0
0.52 0.28 0
0.54 0.28 0
0.56 0.28 0
0.58 0.28 0
0.6 0.28 0
0.62 0.28 0
0.64 0.28 0
0.66 0.28 0
0.68 0.28 0
0.7 0.28 0
0.72 0.28 0
0.74 0.28 0
0.76 0.28 0
0.78 0.28 0
0.8 0.28 0
0.82 0.28 0
0.84 0.28 0
0.86 0.28 0
0.88 0.28 0
0.9 0.28 0
0.92 0.28 0
0.94 0.28 0
0.96 0.28 0
0.98 0.28 0
1 0.28 0
0 0.3 0
0.02 0.3 0
0.04 0.3 0
0.06 0.3 0
0.08 0.3 0
0.1 0.3 0
0.12 0.3 0
0.14 0.3 0
0.16 0.3 0
0.18 0.3 0
0.2 0.3 0
0.22 0.3 0
0.24 0.3 0
0.26 0.3 0
0.28 0.3 0
0.3 0.3 0
0.32 0.3 0
0.34 0.3 0
0.36 0.3 0
0.38 0.3 0
0.4 0.3 0
0.42 0.3 0
0.44 0.3 0
0.46 0.3 0
0.48 0.3 0
0.5 0.3 0
0.52 0.3 0
0.54 0.3 0
0.56 0.3 0
0.58 0.3 0
0.6 0.3 0
0.62 0.3 0
0.64 0.3 0
0.66 0.3 0
0.68 0.3 0
0.7 0.3 0
0.72 0.3 0
0.74 0.3 0
0.76 0.3 0
0.78 0.3 0
0.8 0.3 0
0.82 0.3 0
0.84 0.3 0
0.86 0.3 0
0.88 0.3 0
0.9 0.3 0
0.92 0.3 0
0.94 0.3 0
0.96 0.3 0
0.98 0.3 0
1 0.3 0
0 0.32 0
0.02 0.32 0
0.04 0.32 0
0.06 0.32 0
0.08 0.32 0
0.1 0.32 0
0.12 0.32 0
0.14 0.32 0
0.16 0.32 0
0.18 0.32 0
0.2 0.32 0
0.22 0.32 0
0.24 0.32 0
0.26 0.32 0
0.28 0.32 0
0.3 0.32 0
0.32 0.32 0
0.34 0.32 0
0.36 0.32 0
0.38 0.32 0
0.4 0.32 0
0.42 0.32 0
0.44 0.32 0
0.46 0.32 0
0.48 0.32 0
0.5 0.32 0
0.52 0.32 0
0.54 0.32 0
0.56 0.32 0
0.58 0.32 0
0.6 0.32 0
0.62 0.32 0
0.64 0.32 0
0.66 0.32 0
0.68 0.32 0
0.7 0.32 0
0.72 0.32 0
0.74 0.32 0
0.76 0.32 0
0.78 0.32 0
0.8 0.32 0
0.82 0.32 0
0.84 0.32 0
0.86 0.32 0
0.88 0.32 0
0.9 0.32 0
0.92 0.32 0
0.94 0.32 0
0.96 0.32 0
0.98 0.32 0
1 0.32 0
0 0.34 0
0.02 0.34 0
0.04 0.34 0
0.06 0.34 0
0.08 0.34 0
[...]
POINT_DATA 2601
SCALARS pressure float 1
LOOKUP_TABLE default
3.58145
3.58432
3.59049
3.59578
3.59701
3.5917
3.57842
3.55677
3.52723
3.49096
3.44954
3.40471
3.35818
3.31148
3.2659
3.22246
3.18189
3.1447
3.11117
3.08144
3.05552
3.0333
3.01463
2.99931
2.98709
2.97772
2.97092
2.96644
2.96399
2.96331
2.96413
2.96621
2.9693
2.97319
2.97768
2.98257
2.98772
2.99299
2.99826
3.00345
3.00847
3.01329
3.01785
3.02212
3.02603
3.0295
3.03239
3.03449
3.03556
3.03528
3.03471
3.57771
3.58058
3.58625
3.59041
3.59051
3.58431
3.5705
3.54872
3.51942
3.48371
3.4431
3.39924
3.35377
3.30815
3.26363
3.22117
3.18149
3.14508
3.11223
3.08308
3.05765
3.03583
3.0175
3.00244
2.99043
2.98123
2.97456
2.97015
2.96774
2.96707
2.96786
2.96987
2.97287
2.97664
2.98098
2.9857
2.99067
2.99573
3.00079
3.00576
3.01056
3.01514
3.01947
3.02349
3.02717
3.03041
3.03311
3.0351
3.03618
3.03609
3.03562
3.57003
3.57349
3.57929
3.58228
3.5809
3.57329
3.55838
3.53592
3.50644
3.47104
3.43117
3.38843
3.34433
3.30025
3.25733
3.21644
3.17826
3.14323
3.11163
3.08358
3.05911
3.03812
3.0205
3.00605
2.99456
2.98578
2.97946
2.97535
2.97316
2.97264
2.97352
2.97556
2.97853
2.98221
2.9864
2.99093
2.99565
3.00043
3.00517
3.0098
3.01423
3.01844
3.02237
3.02601
3.0293
3.03219
3.03462
3.03649
3.03767
3.038
3.03784
3.56259
3.56722
3.57439
3.57738
3.57524
3.56632
3.54983
3.52578
3.49493
3.45856
3.4182
3.37545
3.3318
3.28853
3.24667
3.20702
3.17015
3.13642
3.10607
3.07919
3.05579
3.03579
3.01904
3.00538
2.9946
2.98646
2.98073
2.97714
2.97544
2.97534
2.97659
2.97895
2.98217
2.98603
2.99033
2.99491
2.99962
3.00432
3.00894
3.01338
3.0176
3.02155
3.02522
3.02858
3.03161
3.03429
3.0366
3.03847
3.03986
3.04071
3.04091
3.55669
3.56243
3.57096
3.57385
3.57055
3.55961
3.5406
3.51394
3.48073
3.44253
3.401
3.35777
3.31426
3.27165
3.23084
3.1925
3.15707
3.12483
3.09593
3.07042
3.04828
3.02942
3.01372
3.001
2.99108
2.98375
2.97876
2.97588
2.97484
2.97539
2.97725
2.98016
2.98388
2.98819
2.99286
2.99774
3.00266
3.0075
3.01217
3.01659
3.02074
3.02456
3.02807
3.03124
3.0341
3.03665
3.0389
3.04086
3.0425
3.04394
3.04456
3.55322
3.55986
3.5693
3.57154
3.56629
3.55236
3.52981
3.49959
3.46326
3.42264
3.37956
3.33562
3.29216
3.25022
3.21052
3.17359
3.13973
3.10912
3.0818
3.05777
3.03699
3.01936
3.00476
2.99304
2.98403
2.97754
2.97337
2.97128
2.97102
2.97234
2.97497
2.97864
2.9831
2.98808
2.99339
2.99882
3.00421
3.00943
3.01439
3.01902
3.02327
3.02714
3.03063
3.03376
3.03655
3.03905
3.0413
3.04337
3.0453
3.04735
3.0484
3.55292
3.56017
3.56985
3.5706
3.56242
3.5445
3.51753
3.48308
3.44318
3.39991
3.35518
3.31053
3.26717
3.22596
3.18745
3.15198
3.11973
3.09076
3.06504
3.04249
3.02304
3.0066
2.99305
2.98227
2.9741
2.9684
2.96499
2.96366
2.96418
2.9663
2.96977
2.9743
2.97962
2.98547
2.99161
2.99781
3.00391
3.00976
3.01524
3.02029
3.02488
3.02898
3.03262
3.03583
3.03867
3.0412
3.04352
3.04573
3.04793
3.05057
3.05203
3.55684
3.56435
3.57351
3.57184
3.55975
3.53701
3.50504
3.46604
3.42246
3.37659
3.3303
3.28506
3.24187
3.20141
3.16404
3.12996
3.0992
3.07173
3.04744
3.02622
3.00795
2.99253
2.97986
2.96983
2.96235
2.95727
2.95447
2.95375
2.95494
2.95778
2.96203
2.96741
2.97363
2.98041
2.98748
2.99461
3.00158
3.00824
3.01445
3.02013
3.02524
3.02977
3.03373
3.03718
3.04018
3.04283
3.04525
3.04762
3.05007
3.05322
3.05505
3.56641
3.57378
3.58157
3.5766
3.55981
3.5317
3.49449
3.45095
3.40386
3.35558
3.30791
3.26215
3.21911
3.17927
3.14286
3.1099
3.08035
3.05406
3.03089
3.01069
2.99331
2.97864
2.96658
2.95707
2.95002
2.94534
2.94293
2.94263
2.94428
2.94767
2.95255
2.95864
2.96567
2.97333
2.98132
2.9894
2.99731
3.00488
3.01193
3.01838
3.02417
3.02927
3.0337
3.03751
3.04079
3.04364
3.04621
3.04874
3.05139
3.05495
3.05706
3.58337
3.59012
3.59568
3.58666
3.56464
3.53097
3.48858
3.44075
3.39042
3.33993
3.29096
3.2446
3.20151
3.16199
3.12613
3.09387
3.06506
3.03951
3.01703
2.99744
2.98057
2.96631
2.95457
2.94529
2.93842
2.93388
2.9316
2.93148
2.93336
2.93706
2.94235
2.94897
2.95661
2.96498
2.97377
2.9827
2.99149
2.99994
3.00785
3.01512
3.02164
3.0274
3.03239
3.03665
3.04028
3.04339
3.04615
3.04882
3.05164
3.05547
3.05778
3.60959
3.6152
3.61765
3.60405
3.57659
3.53742
3.49014
3.43831
3.38496
3.33233
3.28192
3.23467
3.19108
3.15135
3.11547
3.08331
3.05467
3.02931
3.00701
2.98757
2.97082
2.95662
2.94489
2.93557
2.92862
2.92399
2.92164
2.92147
2.92336
2.92715
2.93261
2.93949
2.9475
2.95634
2.96569
2.97525
2.98475
2.99393
3.0026
3.0106
3.01782
3.02423
3.02979
3.03453
3.03854
3.04194
3.0449
3.0477
3.05062
3.05459
3.05698
3.64681
3.65072
3.64927
3.63079
3.59792
3.55353
3.50165
3.44605
3.3897
3.3347
3.28244
3.2337
3.18892
3.14826
3.11163
3.07887
3.04974
3.02398
3.00134
2.98159
2.96455
2.95008
2.93809
2.92853
2.92133
2.91647
2.9139
2.91354
2.91527
2.91895
2.92437
2.93128
2.9394
2.94843
2.95805
2.96797
2.97789
2.98755
2.99674
3.00529
3.01307
3.02
3.02606
3.03124
3.0356
3.03926
3.0424
3.0453
3.04824
3.05219
3.05456
3.69637
3.69802
3.692
3.66858
3.63048
3.58113
3.52476
3.46525
3.40559
3.34773
3.29292
3.24191
3.19509
3.15261
3.11438
3.08023
3.04989
3.02311
2.9996
2.97913
2.96149
2.94652
2.93412
2.9242
2.9167
2.91157
2.90876
2.90817
2.9097
2.91319
2.91844
2.92521
2.93322
2.94219
2.95179
2.96175
2.97176
2.98158
2.99098
2.9998
3.00787
3.01513
3.0215
3.02697
3.03159
3.03544
3.0387
3.04162
3.04452
3.04831
3.05057
3.75889
3.75778
3.74666
3.71832
3.67513
3.62086
3.55992
3.4962
3.43261
3.37102
3.31269
3.25835
3.20841
3.16305
3.12222
3.08578
3.05348
3.02504
3.00018
2.97864
2.96019
2.94463
2.93182
2.92163
2.91396
2.90873
2.90585
2.9052
2.90666
2.91005
2.91515
2.92174
2.92955
2.93828
2.94764
2.95735
2.96714
2.97677
2.98603
2.99476
3.00281
3.01008
3.01651
3.02206
3.02676
3.03066
3.03391
3.03678
3.03953
3.04304
3.04511
3.83406
3.82974
3.81306
3.77986
3.73164
3.67235
3.60652
3.53792
3.46939
3.40285
3.33961
3.28053
3.22611
3.17661
3.13207
3.09238
3.05734
3.02665
3.00003
2.97717
2.95782
2.94173
2.92871
2.91855
2.91112
2.90624
2.90376
2.90352
2.90532
2.90896
2.9142
2.92079
2.92847
2.93696
2.94597
2.95526
2.96458
2.97372
2.9825
2.99077
2.99843
3.00537
3.01153
3.01688
3.0214
3.02515
3.02825
3.03093
3.03344
3.03657
3.03838
3.92035
3.91246
3.88988
3.85189
3.79864
3.73401
3.66242
3.5877
3.51271
3.43955
3.36971
3.30421
3.24373
3.18865
3.13915
3.09519
3.05661
3.02312
2.99439
2.97009
2.94991
2.93356
2.92075
2.91121
2.9047
2.90095
2.89971
2.9007
2.90366
2.90831
2.91435
2.92148
2.92944
2.93793
2.94672
2.95559
2.96433
2.97277
2.9808
2.98831
2.99521
3.00145
3.00698
3.01178
3.01583
3.01917
3.02191
3.02425
3.02642
3.02909
3.03062
4.01492
4.0032
3.97454
3.93182
3.8732
3.80235
3.72366
3.64107
3.5577
3.4759
3.39739
3.32346
3.25504
3.19273
3.13686
3.08755
3.04467
3.00788
2.97679
2.95102
2.93023
2.91404
2.9021
2.89403
2.88947
2.888
2.88925
2.89279
2.89821
2.90512
2.91311
2.92183
2.93094
2.94014
2.9492
2.95794
2.96623
2.97396
2.9811
2.9876
2.99345
2.99865
3.00319
3.00708
3.01032
3.01296
3.0151
3.01692
3.01862
3.02079
3.02203
4.11352
4.09786
4.06305
4.01543
3.95071
3.87229
3.78467
3.69207
3.59783
3.50476
3.41508
3.33046
3.25213
3.1809
3.11729
3.06154
3.01362
2.97311
2.93948
2.91227
2.89111
2.8756
2.86528
2.8597
2.85834
2.86064
2.86603
2.87391
2.88366
2.8947
2.90647
2.91845
2.93022
2.94143
2.95182
2.96122
2.96957
2.97688
2.98321
2.98863
2.99323
2.99711
3.00033
3.00296
3.00504
3.00666
3.00793
3.00903
3.01016
3.0118
3.01277
4.21058
4.19099
4.15001
4.09704
4.02514
3.93739
3.83828
3.73257
3.62442
3.51732
3.41409
3.31679
3.22687
3.14533
3.0728
3.00961
2.95582
2.91113
2.87477
2.84609
2.82471
2.81024
2.80218
2.79999
2.80305
2.81064
2.822
2.83632
2.85273
2.87038
2.88844
2.90618
2.92295
2.93826
2.95177
2.96332
2.97286
2.98052
2.98649
2.99103
2.99438
2.99677
2.99841
2.99946
3.00006
3.00034
3.00046
3.00063
3.00104
3.00214
3.00288
4.29935
4.27596
4.22882
4.1699
4.08903
3.98902
3.87509
3.75311
3.62842
3.50524
3.38681
3.27546
3.17284
3.08005
2.9978
2.92646
2.86614
2.81666
2.77721
2.74685
2.72516
2.71174
2.70615
2.70779
2.716
2.72997
2.74879
2.77144
2.79682
2.82376
2.85112
2.87778
2.90276
2.92526
2.94471
2.96081
2.97352
2.98302
2.98968
2.99395
2.99633
2.99729
2.99722
2.99646
2.99527
2.9939
2.9926
2.99162
2.99119
2.99173
2.99226
4.37237
4.34545
4.29201
4.22554
4.13292
4.01746
3.88592
3.74563
3.60284
3.46245
3.32806
3.20221
3.08661
2.9824
2.89026
2.81056
2.74339
2.68862
2.64563
2.61332
2.59094
2.57821
2.5747
2.5799
2.59315
2.61364
2.64041
2.67235
2.70818
2.74651
2.78583
2.82463
2.86145
2.89499
2.92422
2.94846
2.96746
2.98135
2.9906
2.99593
2.99812
2.99801
2.99631
2.99362
2.99043
2.98715
2.98416
2.9818
2.98037
2.98033
2.98067
4.4216
4.39119
4.33072
4.25469
4.14791
4.01497
3.86428
3.70465
3.54336
3.38585
3.23594
3.09621
2.96835
2.85341
2.75199
2.66439
2.59064
2.53059
2.48387
2.44931
2.42583
2.41318
2.411
2.41886
2.43617
2.46223
2.49615
2.53687
2.58309
2.63334
2.68591
2.73898
2.7906
2.8389
2.88216
2.91904
2.94868
2.97081
2.98581
2.99452
2.99811
2.99785
2.99495
2.99042
2.98513
2.97974
2.97481
2.97085
2.96824
2.96752
2.96765
4.43939
4.40547
4.33732
4.25039
4.12803
3.97647
3.80619
3.62758
3.44876
3.27547
3.11157
2.95955
2.82097
2.69674
2.58733
2.49292
2.41345
2.34875
2.29849
2.26162
2.23693
2.22396
2.22242
2.23191
2.25198
2.28203
2.32135
2.36904
2.42398
2.48479
2.54983
2.61717
2.68463
2.74985
2.81046
2.86424
2.90939
2.94478
2.97011
2.98598
2.99373
2.99512
2.99202
2.98613
2.97882
2.97119
2.96412
2.95831
2.95431
2.95275
2.95263
4.42026
4.38303
4.30701
4.20827
4.0696
3.89944
3.71054
3.51465
3.32041
3.13363
2.95802
2.7959
2.64863
2.51696
2.4012
2.30142
2.21746
2.14906
2.09582
2.05704
2.03145
2.01818
2.01696
2.02746
2.04927
2.08192
2.12484
2.17731
2.23848
2.30723
2.38219
2.46164
2.54347
2.62522
2.70412
2.77725
2.8418
2.89541
2.93652
2.96477
2.98103
2.98723
2.98591
2.97967
2.97076
2.96094
2.95156
2.94366
2.93798
2.93535
2.93485
4.36078
4.32054
4.23673
4.12593
3.97128
3.78386
3.57852
3.36803
3.16122
2.96372
2.77901
2.60918
2.45536
2.31816
2.19774
2.09406
2.00688
1.93587
1.8806
1.84056
1.81448
1.80118
1.80039
1.81176
1.83491
1.8694
1.91476
1.97041
2.03568
2.10976
2.19159
2.27983
2.37279
2.46826
2.56358
2.6556
2.74084
2.81584
2.87753
2.92388
2.95436
2.9702
2.9741
2.96954
2.96
2.9483
2.93654
2.92627
2.9186
2.91454
2.91348
4.2591
4.21624
4.12518
4.00292
3.83378
3.63148
3.41272
3.19086
2.97459
2.76926
2.57804
2.40277
2.24441
2.1034
1.97983
1.87356
1.78431
1.71171
1.65534
1.61476
1.58864
1.57571
1.57563
1.58805
1.61255
1.64873
1.69612
1.7542
1.82242
1.90011
1.9865
2.08061
2.18118
2.28656
2.39455
2.50234
2.60645
2.70289
2.78746
2.85634
2.9069
2.93847
2.95276
2.95346
2.94521
2.93242
2.9184
2.90552
2.89545
2.88949
2.88762
4.11524
4.07034
3.97307
3.84067
3.65924
3.44511
3.21635
2.98647
2.76381
2.55334
2.35795
2.17926
2.01809
1.87477
1.74934
1.6416
1.55126
1.47793
1.42121
1.38068
1.35501
1.34288
1.34388
1.35763
1.38371
1.42169
1.47111
1.53146
1.60222
1.68281
1.77258
1.87076
1.97645
2.08845
2.20519
2.3245
2.4435
2.55844
2.6648
2.75762
2.83227
2.88548
2.91653
2.92782
2.92436
2.9121
2.89634
2.88073
2.8678
2.85933
2.8563
3.93016
3.88382
3.78168
3.64118
3.45041
3.22791
2.99263
2.75791
2.53164
2.3184
2.12085
1.94045
1.77791
1.63354
1.50733
1.39908
1.3085
1.2352
1.17875
1.13869
1.11391
1.1031
1.1056
1.12103
1.14897
1.18898
1.24059
1.30329
1.37657
1.45986
1.55257
1.65404
1.76353
1.88016
2.00281
2.12994
2.25945
2.38838
2.51274
2.62748
2.72686
2.80537
2.85913
2.88755
2.89415
2.88557
2.86921
2.851
2.83485
2.82316
2.81858
3.70655
3.65955
3.55421
3.40777
3.21058
2.98303
2.74446
2.50774
2.28024
2.06624
1.86821
1.6875
1.52481
1.38043
1.25436
1.14644
1.05637
0.983767
0.928185
0.889073
0.865647
0.856625
0.861042
0.878528
0.908665
0.950999
1.00505
1.0703
1.14621
1.23224
1.3278
1.43229
1.54504
1.66532
1.79228
1.92481
2.06144
2.20007
2.33765
2.46992
2.59128
2.69513
2.77503
2.82664
2.84988
2.84996
2.83552
2.81533
2.79572
2.78008
2.77344
3.44641
3.39929
3.29234
3.14263
2.94241
2.71317
2.47424
2.23794
2.01123
1.79813
1.60099
1.42115
1.25932
1.11582
0.990696
0.883825
0.794944
0.723686
0.669591
0.632098
0.610546
0.603673
0.610395
0.630325
0.663029
0.708038
0.764847
0.832926
0.911725
1.00067
1.09919
1.20667
1.3225
1.44601
1.57649
1.71309
1.85474
1.99996
2.14661
2.29152
2.43005
2.55594
2.66166
2.73984
2.78592
2.80106
2.7929
2.77239
2.74938
2.72914
2.71991
3.15385
3.10741
3.00062
2.84979
2.64904
2.42076
2.18389
1.95004
1.72576
1.51491
1.31981
1.14183
0.981733
0.839902
0.716454
0.611316
0.524265
0.454963
0.402962
0.367715
0.348585
0.344307
0.353773
0.376581
0.41228
0.460377
0.520346
0.591631
0.673656
0.765828
0.867542
0.978189
1.09715
1.2238
1.35748
1.49747
1.64295
1.79284
1.94565
2.09913
2.24986
2.39271
2.52059
2.62488
2.69738
2.73389
2.7379
2.72036
2.69471
2.66929
2.65701
2.83022
2.78471
2.67933
2.53003
2.33201
2.1075
1.87484
1.64512
1.42463
1.21717
1.02508
0.849815
0.692226
0.552787
0.431693
0.328937
0.244346
0.177614
0.128312
0.0959025
0.0797453
0.0785751
0.0912881
0.117473
0.156661
0.208337
0.271947
0.346907
0.432607
0.528424
0.633723
0.747865
0.870214
1.00014
1.137
1.28015
1.42887
1.58235
1.7395
1.89874
2.05764
2.21238
2.35713
2.48372
2.58232
2.64419
2.66663
2.65701
2.63064
2.59983
2.58409
2.48048
2.43663
2.33422
2.18799
1.99422
1.77512
1.54823
1.32397
1.10838
0.905263
0.717035
0.545248
0.39088
0.254508
0.136419
0.0366796
-0.044827
-0.10837
-0.154358
-0.183325
-0.195933
-0.193437
-0.176913
-0.146781
-0.103529
-0.0476957
0.0201352
0.0993446
0.189286
0.289295
0.398697
0.516817
0.642983
0.776534
0.916824
1.06321
1.21505
1.37162
1.53211
1.69536
1.85965
2.02224
2.17869
2.32218
2.44316
2.53057
2.57592
2.57996
2.55634
2.52054
2.50087
2.10393
2.0615
1.96267
1.82197
1.6355
1.4242
1.20471
0.987096
0.777373
0.579431
0.39581
0.228202
0.0777175
-0.0549463
-0.1694
-0.265498
-0.343293
-0.403015
-0.445051
-0.469943
-0.478384
-0.471604
-0.450633
-0.415901
-0.367915
-0.30724
-0.234495
-0.150341
-0.0554658
0.0494176
0.163588
0.286321
0.416901
0.554627
0.698817
0.848812
1.00397
1.16362
1.32707
1.49342
1.66142
1.82909
1.99317
2.14831
2.28632
2.39598
2.46531
2.48783
2.47145
2.43197
2.40814
1.70663
1.66641
1.57246
1.43796
1.25917
1.05628
0.845009
0.634895
0.431842
0.239807
0.0614733
-0.101309
-0.247283
-0.375622
-0.485826
-0.577658
-0.651104
-0.70635
-0.743765
-0.763903
-0.767502
-0.75575
-0.72961
-0.689524
-0.63602
-0.569697
-0.491216
-0.401283
-0.300642
-0.190057
-0.0703053
0.0578342
0.193594
0.336222
0.484994
0.639212
0.798204
0.961315
1.12787
1.29711
1.46805
1.63922
1.80819
1.97091
2.12072
2.24757
2.33849
2.3817
2.37707
2.33626
2.30848
1.28439
1.24559
1.15652
1.03074
0.862785
0.670677
0.469124
0.267511
0.0719002
-0.113549
-0.28596
-0.443308
-0.584175
-0.707591
-0.812935
-0.899872
-0.968313
-1.0184
-1.05048
-1.06512
-1.06313
-1.04563
-1.01349
-0.967177
-0.907239
-0.83432
-0.749131
-0.652437
-0.545042
-0.427775
-0.301475
-0.16698
-0.0251134
0.123321
0.277551
0.436833
0.600457
0.767737
0.937991
1.1105
1.2844
1.4585
1.63095
1.79862
1.95621
2.09524
2.2034
2.26638
2.2766
2.23743
2.20635
0.845689
0.809275
0.726207
0.608854
0.451088
0.269505
0.0778598
-0.114773
-0.302346
-0.480604
-0.646506
-0.797843
-0.933027
-1.05093
-1.15081
-1.23221
-1.29496
-1.33916
-1.36512
-1.37346
-1.36504
-1.3409
-1.30181
-1.24825
-1.1808
-1.10017
-1.00714
-0.902536
-0.787239
-0.662151
-0.528179
-0.386225
-0.237166
-0.0818555
0.0788895
0.244285
0.413579
0.586047
0.760972
0.937618
1.11516
1.29253
1.4682
1.63965
1.80263
1.95005
2.07096
2.15068
2.17664
2.14184
2.10852
0.380756
0.345388
0.268134
0.162448
0.0185568
-0.149784
-0.329724
-0.512217
-0.690959
-0.861394
-1.02021
-1.16498
-1.29392
-1.40573
-1.49953
-1.57473
-1.63108
-1.66859
-1.6876
-1.68871
-1.6729
-1.64111
-1.59395
-1.53193
-1.45572
-1.36609
-1.26389
-1.15004
-1.02553
-0.891321
-0.748403
-0.597737
-0.44025
-0.276836
-0.108346
0.0644059
0.240637
0.419585
0.600495
0.782589
0.965018
1.14676
1.32641
1.50181
1.6694
1.82318
1.95354
2.04654
2.08723
2.05869
2.02452
-0.0969691
-0.130003
-0.200643
-0.295962
-0.427263
-0.583134
-0.751759
-0.924113
-1.09372
-1.25586
-1.40709
-1.54476
-1.66691
-1.77206
-1.85915
-1.92746
-1.97663
-2.00661
-2.0177
-2.01055
-1.98624
-1.9456
-1.88905
-1.81719
-1.73074
-1.63058
-1.51769
-1.39309
-1.25787
-1.11309
-0.959801
-0.799028
-0.631734
-0.458837
-0.281205
-0.0996651
0.0849855
0.271963
0.46048
0.649717
0.83878
1.02662
1.21187
1.39255
1.5655
1.72546
1.86387
1.96774
2.02138
2.00015
1.96655
-0.606281
-0.638672
-0.70207
-0.782061
-0.896286
-1.03645
-1.19132
-1.35179
-1.5111
-1.6642
-1.80723
-1.93726
-2.05207
-2.14997
-2.22969
-2.29038
-2.33153
-2.35302
-2.35511
-2.3385
-2.30439
-2.25348
-2.186
-2.10262
-2.0042
-1.89178
-1.76645
-1.62939
-1.4818
-1.32483
-1.15962
-0.987205
-0.808581
-0.624667
-0.436323
-0.244368
-0.0495925
0.147218
0.34526
0.543686
0.741558
0.937784
1.13098
1.31924
1.49961
1.6673
1.81444
1.92875
1.99433
1.9812
1.9495
-1.12416
-1.15462
-1.21098
-1.27802
-1.37635
-1.50146
-1.64335
-1.79262
-1.94196
-2.08593
-2.22046
-2.34243
-2.44938
-2.53943
-2.6111
-2.66336
-2.69556
-2.70748
-2.69933
-2.67185
-2.62641
-2.56353
-2.48324
-2.38637
-2.27397
-2.14725
-2.00752
-1.8561
-1.69432
-1.52342
-1.34457
-1.15884
-0.967205
-0.770561
-0.569738
-0.365518
-0.158665
0.0500542
0.259844
0.469845
0.679097
0.886472
1.09057
1.28949
1.48043
1.6589
1.81746
1.94421
2.02267
2.01928
1.99093
-1.68457
-1.71411
-1.75987
-1.80623
-1.88362
-1.99018
-2.11598
-2.25132
-2.3886
-2.52207
-2.64719
-2.7604
-2.85886
-2.94037
-3.00322
-3.04616
-3.06834
-3.06943
-3.04957
-3.00956
-2.95092
-2.87401
-2.77866
-2.66595
-2.53721
-2.3939
-2.23756
-2.06969
-1.89173
-1.70499
-1.51065
-1.30975
-1.10322
-0.891913
-0.676586
-0.457972
-0.236786
-0.0137572
0.210343
0.434668
0.658257
0.879978
1.09843
1.31175
1.51726
1.71076
1.88517
2.02875
2.12388
2.13402
2.11118
-2.24632
-2.27526
-2.31358
-2.34252
-2.39906
-2.4867
-2.59687
-2.71949
-2.84611
-2.97003
-3.08614
-3.19052
-3.28012
-3.3525
-3.40572
-3.43829
-3.4492
-3.43794
-3.40463
-3.35006
-3.27594
-3.18242
-3.06927
-2.93794
-2.79013
-2.62764
-2.45226
-2.26566
-2.06937
-1.8647
-1.65279
-1.43462
-1.21104
-0.982799
-0.750588
-0.515067
-0.276891
-0.0367422
0.204647
0.446462
0.687768
0.92746
1.16418
1.39615
1.6209
1.83456
2.03058
2.19749
2.31619
2.34713
2.33363
-2.87016
-2.89526
-2.91527
-2.9162
-2.94758
-3.01358
-3.10501
-3.2113
-3.32361
-3.43499
-3.53996
-3.63405
-3.71361
-3.77573
-3.81813
-3.839
-3.83704
-3.81156
-3.76257
-3.69097
-3.59851
-3.48518
-3.35087
-3.19761
-3.02762
-2.84307
-2.64599
-2.43818
-2.22116
-1.99618
-1.76429
-1.52634
-1.28308
-1.03514
-0.783138
-0.527652
-0.269279
-0.00864799
0.253552
0.516549
0.779456
1.04123
1.3006
1.55595
1.80508
2.04463
2.26887
2.46715
2.61921
2.68272
2.68498
-3.4801
-3.50787
-3.51983
-3.49591
-3.50016
-3.54239
-3.61418
-3.70468
-3.80456
-3.90588
-4.00184
-4.08689
-4.15684
-4.20846
-4.23916
-4.24686
-4.23007
-4.18792
-4.12044
-4.0289
-3.91451
-3.77703
-3.61739
-3.43835
-3.24267
-3.03288
-2.81116
-2.5793
-2.33872
-2.09052
-1.8356
-1.57467
-1.30834
-1.03716
-0.761659
-0.482354
-0.19979
0.0854472
0.372715
0.661289
0.950345
1.23892
1.52588
1.80983
2.08892
2.36049
2.61997
2.8584
3.05565
3.16821
3.19588
-4.18597
-4.19913
-4.17652
-4.1175
-4.09394
-4.11257
-4.16384
-4.23595
-4.3189
-4.40462
-4.4863
-4.55807
-4.61497
-4.65296
-4.66895
-4.66051
-4.62573
-4.56341
-4.47352
-4.35789
-4.21667
-4.04966
-3.8598
-3.65061
-3.42534
-3.1867
-2.93683
-2.67734
-2.40945
-2.13406
-1.8519
-1.56355
-1.26953
-0.970319
-0.666392
-0.35823
-0.0463436
0.268719
0.586354
0.905892
1.22658
1.54756
1.86785
2.18628
2.50145
2.81148
3.11329
3.40057
3.6554
3.83728
3.90316
-4.85042
-4.86886
-4.83415
-4.74036
-4.68461
-4.67599
-4.70401
-4.75596
-4.82169
-4.89342
-4.96395
-5.02586
-5.07232
-5.09817
-5.09966
-5.07375
-5.01805
-4.93126
-4.81359
-4.66735
-4.4925
-4.2899
-4.06438
-3.82013
-3.56061
-3.28838
-3.00534
-2.71284
-2.41187
-2.1032
-1.78744
-1.46511
-1.1367
-0.802681
-0.463501
-0.119635
0.22843
0.580175
0.93504
1.29242
1.65164
2.01196
2.37257
2.73254
3.09087
3.44645
3.79772
4.14171
4.46505
4.73772
4.85661
-5.6564
-5.63361
-5.53619
-5.40727
-5.32657
-5.29729
-5.3079
-5.34426
-5.3944
-5.4489
-5.50024
-5.54187
-5.56751
-5.57112
-5.54742
-5.49244
-5.40388
-5.28117
-5.12549
-4.93904
-4.72212
-4.477
-4.20919