# vtk DataFile Version 2.0
insac
ASCII
DATASET STRUCTURED_GRID
DIMENSIONS 51 51 1
POINTS 2601 float
0 0 0
0.02 0 0
0.04 0 0
0.06 0 0
0.08 0 0
0.1 0 0
0.12 0 0
0.14 0 0
0.16 0 0
0.18 0 0
0.2 0 0
0.22 0 0
0.24 0 0
0.26 0 0
0.28 0 0
0.3 0 0
0.32 0 0
0.34 0 0
0.36 0 0
0.38 0 0
0.4 0 0
0.42 0 0
0.44 0 0
0.46 0 0
0.48 0 0
0.5 0 0
0.52 0 0
0.54 0 0
0.56 0 0
0.58 0 0
0.6 0 0
0.62 0 0
0.64 0 0
0.66 0 0
0.68 0 0
0.7 0 0
0.72 0 0
0.74 0 0
0.76 0 0
0.78 0 0
0.8 0 0
0.82 0 0
0.84 0 0
0.86 0 0
0.88 0 0
0.9 0 0
0.92 0 0
0.94 0 0
0.96 0 0
0.98 0 0
1 0 0
0 0.02 0
0.02 0.02 0
0.04 0.02 0
0.06 0.02 0
0.08 0.02 0
0.1 0.02 0
0.12 0.02 0
0.14 0.02 0
0.16 0.02 0
0.18 0.02 0
0.2 0.02 0
0.22 0.02 0
0.24 0.02 0
0.26 0.02 0
0.28 0.02 0
0.3 0.02 0
0.32 0.02 0
0.34 0.02 0
0.36 0.02 0
0.38 0.02 0
0.4 0.02 0
0.42 0.02 0
0.44 0.02 0
0.46 0.02 0
0.48 0.02 0
0.5 0.02 0
0.52 0.02 0
0.54 0.02 0
0.56 0.02 0
0.58 0.02 0
0.6 0.02 0
0.62 0.02 0
0.64 0.02 0
0.66 0.02 0
0.68 0.02 0
0.7 0.02 0
0.72 0.02 0
0.74 0.02 0
0.76 0.02 0
0.78 0.02 0
0.8 0.02 0
0.82 0.02 0
0.84 0.02 0
0.86 0.02 0
0.88 0.02 0
0.9 0.02 0
0.92 0.02 0
0.94 0.02 0
0.96 0.02 0
0.98 0.02 0
1 0.02 0
0 0.04 0
0.02 0.04 0
0.04 0.04 0
0.06 0.04 0
0.08 0.04 0
0.1 0.04 0
0.12 0.04 0
0.14 0.04 0
0.16 0.04 0
0.18 0.04 0
0.2 0.04 0
0.22 0.04 0
0.24 0.04 0
0.26 0.04 0
0.28 0.04 0
0.3 0.04 0
0.32 0.04 0
0.34 0.04 0
0.36 0.04 0
0.38 0.04 0
0.4 0.04 0
0.42 0.04 0
0.44 0.04 0
0.46 0.04 0
0.48 0.04 0
0.5 0.04 0
0.52 0.04 0
0.54 0.04 0
0.56 0.04 0
0.58 0.04 0
0.6 0.04 0
0.62 0.04 0
0.64 0.04 0
0.66 0.04 0
0.68 0.04 0
0.7 0.04 0
0.72 0.04 0
0.74 0.04 0
0.76 0.04 0
0.78 0.04 0
0.8 0.04 0
0.82 0.04 0
0.84 0.04 0
0.86 0.04 0
0.88 0.04 0
0.9 0.04 0
0.92 0.04 0
0.94 0.04 0
0.96 0.04 0
0.98 0.04 0
1 0.04 0
0 0.06 0
0.02 0.06 0
0.04 0.06 0
0.06 0.06 0
0.08 0.06 0
0.1 0.06 0
0.12 0.06 0
0.14 0.06 0
0.16 0.06 0
0.18 0.06 0
0.2 0.06 0
0.22 0.06 0
0.24 0.06 0
0.26 0.06 0
0.28 0.06 0
0.3 0.06 0
0.32 0.06 0
0.34 0.06 0
0.36 0.06 0
0.38 0.06 0
0.4 0.06 0
0.42 0.06 0
0.44 0.06 0
0.46 0.06 0
0.48 0.06 0
0.5 0.06 0
0.52 0.06 0
0.54 0.06 0
0.56 0.06 0
0.58 0.06 0
0.6 0.06 0
0.62 0.06 0
0.64 0.06 0
0.66 0.06 0
0.68 0.06 0
0.7 0.06 0
0.72 0.06 0
0.74 0.06 0
0.76 0.06 0
0.78 0.06 0
0.8 0.06 0
0.82 0.06 0
0.84 0.06 0
0.86 0.06 0
0.88 0.06 0
0.9 0.06 0
0.92 0.06 0
0.94 0.06 0
0.96 0.06 0
0.98 0.06 0
1 0.06 0
0 0.08 0
0.02 0.08 0
0.04 0.08 0
0.06 0.08 0
0.08 0.08 0
0.1 0.08 0
0.12 0.08 0
0.14 0.08 0
0.16 0.08 0
0.18 0.08 0
0.2 0.08 0
0.22 0.08 0
0.24 0.08 0
0.26 0.08 0
0.28 0.08 0
0.3 0.08 0
0.32 0.08 0
0.34 0.08 0
0.36 0.08 0
0.38 0.08 0
0.4 0.08 0
0.42 0.08 0
0.44 0.08 0
0.46 0.08 0
0.48 0.08 0
0.5 0.08 0
0.52 0.08 0
0.54 0.08 0
0.56 0.08 0
0.58 0.08 0
0.6 0.08 0
0.62 0.08 0
0.64 0.08 0
0.66 0.08 0
0.68 0.08 0
0.7 0.08 0
0.72 0.08 0
0.74 0.08 0
0.76 0.08 0
0.78 0.08 0
0.8 0.08 0
0.82 0.08 0
0.84 0.08 0
0.86 0.08 0
0.88 0.08 0
0.9 0.08 0
0.92 0.08 0
0.94 0.08 0
0.96 0.08 0
0.98 0.08 0
1 0.08 0
0 0.1 0
0.02 0.1 0
0.04 0.1 0
0.06 0.1 0
0.08 0.1 0
0.1 0.1 0
0.12 0.1 0
0.14 0.1 0
0.16 0.1 0
0.18 0.1 0
0.2 0.1 0
0.22 0.1 0
0.24 0.1 0
0.26 0.1 0
0.28 0.1 0
0.3 0.1 0
0.32 0.1 0
0.34 0.1 0
0.36 0.1 0
0.38 0.1 0
0.4 0.1 0
0.42 0.1 0
0.44 0.1 0
0.46 0.1 0
0.48 0.1 0
0.5 0.1 0
0.52 0.1 0
0.54 0.1 0
0.56 0.1 0
0.58 0.1 0
0.6 0.1 0
0.62 0.1 0
0.64 0.1 0
0.66 0.1 0
0.68 0.1 0
0.7 0.1 0
0.72 0.1 0
0.74 0.1 0
0.76 0.1 0
0.78 0.1 0
0.8 0.1 0
0.82 0.1 0
0.84 0.1 0
0.86 0.1 0
0.88 0.1 0
0.9 0.1 0
0.92 0.1 0
0.94 0.1 0
0.96 0.1 0
0.98 0.1 0
1 0.1 0
0 0.12 0
0.02 0.12 0
0.04 0.12 0
0.06 0.12 0
0.08 0.12 0
0.1 0.12 0
0.12 0.12 0
0.14 0.12 0
0.16 0.12 0
0.18 0.12 0
0.2 0.12 0
0.22 0.12 0
0.24 0.12 0
0.26 0.12 0
0.28 0.12 0
0.3 0.12 0
0.32 0.12 0
0.34 0.12 0
0.36 0.12 0
0.38 0.12 0
0.4 0.12 0
0.42 0.12 0
0.44 0.12 0
0.46 0.12 0
0.48 0.12 0
0.5 0.12 0
0.52 0.12 0
0.54 0.12 0
0.56 0.12 0
0.58 0.12 0
0.6 0.12 0
0.62 0.12 0
0.64 0.12 0
0.66 0.12 0
0.68 0.12 0
0.7 0.12 0
0.72 0.12 0
0.74 0.12 0
0.76 0.12 0
0.78 0.12 0
0.8 0.12 0
0.82 0.12 0
0.84 0.12 0
0.86 0.12 0
0.88 0.12 0
0.9 0.12 0
0.92 0.12 0
0.94 0.12 0
0.96 0.12 0
0.98 0.12 0
1 0.12 0
0 0.14 0
0.02 0.14 0
0.04 0.14 0
0.06 0.14 0
0.08 0.14 0
0.1 0.14 0
0.12 0.14 0
0.14 0.14 0
0.16 0.14 0
0.18 0.14 0
0.2 0.14 0
0.22 0.14 0
0.24 0.14 0
0.26 0.14 0
0.28 0.14 0
0.3 0.14 0
0.32 0.14 0
0.34 0.14 0
0.36 0.14 0
0.38 0.14 0
0.4 0.14 0
0.42 0.14 0
0.44 0.14 0
0.46 0.14 0
0.48 0.14 0
0.5 0.14 0
0.52 0.14 0
0.54 0.14 0
0.56 0.14 0
0.58 0.14 0
0.6 0.14 0
0.62 0.14 0
0.64 0.14 0
0.66 0.14 0
0.68 0.14 0
0.7 0.14 0
0.72 0.14 0
0.74 0.14 0
0.76 0.14 0
0.78 0.14 0
0.8 0.14 0
0.82 0.14 0
0.84 0.14 0
0.86 0.14 0
0.88 0.14 0
0.9 0.14 0
0.92 0.14 0
0.94 0.14 0
0.96 0.14 0
0.98 0.14 0
1 0.14 0
0 0.16 0
0.02 0.16 0
0.04 0.16 0
0.06 0.16 0
0.08 0.16 0
0.1 0.16 0
0.12 0.16 0
0.14 0.16 0
0.16 0.16 0
0.18 0.16 0
0.2 0.16 0
0.22 0.16 0
0.24 0.16 0
0.26 0.16 0
0.28 0.16 0
0.3 0.16 0
0.32 0.16 0
0.34 0.16 0
0.36 0.16 0
0.38 0.16 0
0.4 0.16 0
0.42 0.16 0
0.44 0.16 0
0.46 0.16 0
0.48 0.16 0
0.5 0.16 0
0.52 0.16 0
0.54 0.16 0
0.56 0.16 0
0.58 0.16 0
0.6 0.16 0
0.62 0.16 0
0.64 0.16 0
0.66 0.16 0
0.68 0.16 0
0.7 0.16 0
0.72 0.16 0
0.74 0.16 0
0.76 0.16 0
0.78 0.16 0
0.8 0.16 0
0.82 0.16 0
0.84 0.16 0
0.86 0.16 0
0.88 0.16 0
0.9 0.16 0
0.92 0.16 0
0.94 0.16 0
0.96 0.16 0
0.98 0.16 0
1 0.16 0
0 0.18 0
0.02 0.18 0
0.04 0.18 0
0.06 0.18 0
0.08 0.18 0
0.1 0.18 0
0.12 0.18 0
0.14 0.18 0
0.16 0.18 0
0.18 0.18 0
0.2 0.18 0
0.22 0.18 0
0.24 0.18 0
0.26 0.18 0
0.28 0.18 0
0.3 0.18 0
0.32 0.18 0
0.34 0.18 0
0.36 0.18 0
0.38 0.18 0
0.4 0.18 0
0.42 0.18 0
0.44 0.18 0
0.46 0.18 0
0.48 0.18 0
0.5 0.18 0
0.52 0.18 0
0.54 0.18 0
0.56 0.18 0
0.58 0.18 0
0.6 0.18 0
0.62 0.18 0
0.64 0.18 0
0.66 0.18 0
0.68 0.18 0
0.7 0.18 0
0.72 0.18 0
0.74 0.18 0
0.76 0.18 0
0.78 0.18 0
0.8 0.18 0
0.82 0.18 0
0.84 0.18 0
0.86 0.18 0
0.88 0.18 0
0.9 0.18 0
0.92 0.18 0
0.94 0.18 0
0.96 0.18 0
0.98 0.18 0
1 0.18 0
0 0.2 0
0.02 0.2 0
0.04 0.2 0
0.06 0.2 0
0.08 0.2 0
0.1 0.2 0
0.12 0.2 0
0.14 0.2 0
0.16 0.2 0
0.18 0.2 0
0.2 0.2 0
0.22 0.2 0
0.24 0.2 0
0.26 0.2 0
0.28 0.2 0
0.3 0.2 0
0.32 0.2 0
0.34 0.2 0
0.36 0.2 0
0.38 0.2 0
0.4 0.2 0
0.42 0.2 0
0.44 0.2 0
0.46 0.2 0
0.48 0.2 0
0.5 0.2 0
0.52 0.2 0
0.54 0.2 0
0.56 0.2 0
0.58 0.2 0
0.6 0.2 0
0.62 0.2 0
0.64 0.2 0
0.66 0.2 0
0.68 0.2 0
0.7 0.2 0
0.72 0.2 0
0.74 0.2 0
0.76 0.2 0
0.78 0.2 0
0.8 0.2 0
0.82 0.2 0
0.84 0.2 0
0.86 0.2 0
0.88 0.2 0
0.9 0.2 0
0.92 0.2 0
0.94 0.2 0
0.96 0.2 0
0.98 0.2 0
1 0.2 0
0 0.22 0
0.02 0.22 0
0.04 0.22 0
0.06 0.22 0
0.08 0.22 0
0.1 0.22 0
0.12 0.22 0
0.14 0.22 0
0.16 0.22 0
0.18 0.22 0
0.2 0.22 0
0.22 0.22 0
0.24 0.22 0
0.26 0.22 0
0.28 0.22 0
0.3 0.22 0
0.32 0.22 0
0.34 0.22 0
0.36 0.22 0
0.38 0.22 0
0.4 0.22 0
0.42 0.22 0
0.44 0.22 0
0.46 0.22 0
0.48 0.22 0
0.5 0.22 0
0.52 0.22 0
0.54 0.22 0
0.56 0.22 0
0.58 0.22 0
0.6 0.22 0
0.62 0.22 0
0.64 0.22 0
0.66 0.22 0
0.68 0.22 0
0.7 0.22 0
0.72 0.22 0
0.74 0.22 0
0.76 0.22 0
0.78 0.22 0
0.8 0.22 0
0.82 0.22 0
0.84 0.22 0
0.86 0.22 0
0.88 0.22 0
0.9 0.22 0
0.92 0.22 0
0.94 0.22 0
0.96 0.22 0
0.98 0.22 0
1 0.22 0
0 0.24 0
0.02 0.24 0
0.04 0.24 0
0.06 0.24 0
0.08 0.24 0
0.1 0.24 0
0.12 0.24 0
0.14 0.24 0
0.16 0.24 0
0.18 0.24 0
0.2 0.24 0
0.22 0.24 0
0.24 0.24 0
0.26 0.24 0
0.28 0.24 0
0.3 0.24 0
0.32 0.24 0
0.34 0.24 0
0.36 0.24 0
0.38 0.24 0
0.4 0.24 0
0.42 0.24 0
0.44 0.24 0
0.46 0.24 0
0.48 0.24 0
0.5 0.24 0
0.52 0.24 0
0.54 0.24 0
0.56 0.24 0
0.58 0.24 0
0.6 0.24 0
0.62 0.24 0
0.64 0.24 0
0.66 0.24 0
0.68 0.24 0
0.7 0.24 0
0.72 0.24 0
0.74 0.24 0
0.76 0.24 0
0.78 0.24 0
0.8 0.24 0
0.82 0.24 0
0.84 0.24 0
0.86 0.24 0
0.88 0.24 0
0.9 0.24 0
0.92 0.24 0
0.94 0.24 0
0.96 0.24 0
0.98 0.24 0
1 0.24 0
0 0.26 0
0.02 0.26 0
0.04 0.26 0
0.06 0.26 0
0.08 0.26 0
0.1 0.26 0
0.12 0.26 0
0.14 0.26 0
0.16 0.26 0
0.18 0.26 0
0.2 0.26 0
0.22 0.26 0
0.24 0.26 0
0.26 0.26 0
0.28 0.26 0
0.3 0.26 0
0.32 0.26 0
0.34 0.26 0
0.36 0.26 0
0.38 0.26 0
0.4 0.26 0
0.42 0.26 0
0.44 0.26 0
0.46 0.26 0
0.48 0.26 0
0.5 0.26 0
0.52 0.26 0
0.54 0.26 0
0.56 0.26 0
0.58 0.26 0
0.6 0.26 0
0.62 0.26 0
0.64 0.26 0
0.66 0.26 0
0.68 0.26 0
0.7 0.26 0
0.72 0.26 0
0.74 0.26 0
0.76 0.26 0
0.78 0.26 0
0.8 0.26 0
0.82 0.26 0
0.84 0.26 0
0.86 0.26 0
0.88 0.26 0
0.9 0.26 0
0.92 0.26 0
0.94 0.26 0
0.96 0.26 0
0.98 0.26 0
1 0.26 0
0 0.28 0
0.02 0.28 0
0.04 0.28 0
0.06 0.28 0
0.08 0.28 0
0.1 0.28 0
0.12 0.28 0
0.14 0.28 0
0.16 0.28 0
0.18 0.28 0
0.2 0.28 0
0.22 0.28 0
0.24 0.28 0
0.26 0.28 0
0.28 0.28 0
0.3 0.28 0
0.32 0.28 0
0.34 0.28 0
0.36 0.28 0
0.38 0.28 0
0.4 0.28 0
0.42 0.28 0
0.44 0.28 0
0.46 0.28 0
0.48 0.28 0
0.5 0.28 0
0.52 0.28 0
0.54 0.28 0
0.56 0.28 0
0.58 0.28 0
0.6 0.28 0
0.62 0.28 0
0.64 0.28 0
0.66 0.28 0
0.68 0.28 0
0.7 0.28 0
0.72 0.28 0
0.74 0.28 0
0.76 0.28 0
0.78 0.28 0
0.8 0.28 0
0.82 0.28 0
0.84 0.28 0
0.86 0.28 0
0.88 0.28 0
0.9 0.28 0
0.92 0.28 0
0.94 0.28 0
0.96 0.28 0
0.98 0.28 0
1 0.28 0
0 0.3 0
0.02 0.3 0
0.04 0.3 0
0.06 0.3 0
0.08 0.3 0
0.1 0.3 0
0.12 0.3 0
0.14 0.3 0
0.16 0.3 0
0.18 0.3 0
0.2 0.3 0
0.22 0.3 0
0.24 0.3 0
0.26 0.3 0
0.28 0.3 0
0.3 0.3 0
0.32 0.3 0
0.34 0.3 0
0.36 0.3 0
0.38 0.3 0
0.4 0.3 0
0.42 0.3 0
0.44 0.3 0
0.46 0.3 0
0.48 0.3 0
0.5 0.3 0
0.52 0.3 0
0.54 0.3 0
0.56 0.3 0
0.58 0.3 0
0.6 0.3 0
0.62 0.3 0
0.64 0.3 0
0.66 0.3 0
0.68 0.3 0
0.7 0.3 0
0.72 0.3 0
0.74 0.3 0
0.76 0.3 0
0.78 0.3 0
0.8 0.3 0
0.82 0.3 0
0.84 0.3 0
0.86 0.3 0
0.88 0.3 0
0.9 0.3 0
0.92 0.3 0
0.94 0.3 0
0.96 0.3 0
0.98 0.3 0
1 0.3 0
0 0.32 0
0.02 0.32 0
0.04 0.32 0
0.06 0.32 0
0.08 0.32 0
0.1 0.32 0
0.12 0.32 0
0.14 0.32 0
0.16 0.32 0
0.18 0.32 0
0.2 0.32 0
0.22 0.32 0
0.24 0.32 0
0.26 0.32 0
0.28 0.32 0
0.3 0.32 0
0.32 0.32 0
0.34 0.32 0
0.36 0.32 0
0.38 0.32 0
0.4 0.32 0
0.42 0.32 0
0.44 0.32 0
0.46 0.32 0
0.48 0.32 0
0.5 0.32 0
0.52 0.32 0
0.54 0.32 0
0.56 0.32 0
0.58 0.32 0
0.6 0.32 0
0.62 0.32 0
0.64 0.32 0
0.66 0.32 0
0.68 0.32 0
0.7 0.32 0
0.72 0.32 0
0.74 0.32 0
0.76 0.32 0
0.78 0.32 0
0.8 0.32 0
0.82 0.32 0
0.84 0.32 0
0.86 0.32 0
0.88 0.32 0
0.9 0.32 0
0.92 0.32 0
0.94 0.32 0
0.96 0.32 0
0.98 0.32 0
1 0.32 0
0 0.34 0
0.02 0.34 0
0.04 0.34 0
0.06 0.34 0
0.08 0.34 0
[...]
POINT_DATA 2601
SCALARS pressure float 1
LOOKUP_TABLE default
0.0144299
0.0143973
0.0142669
0.0140305
0.0137323
0.0134086
0.0130886
0.0127935
0.0125383
0.0123328
0.0121833
0.0120936
0.0120661
0.0121021
0.0122022
0.0123668
0.0125955
0.0128881
0.0132433
0.0136594
0.0141337
0.0146622
0.01524
0.0158602
0.0165147
0.0171938
0.0178863
0.0185796
0.0192601
0.0199135
0.0205252
0.0210809
0.0215673
0.0219723
0.0222858
0.0225006
0.0226123
0.0226201
0.0225269
0.0223394
0.0220683
0.0217279
0.0213362
0.0209141
0.0204858
0.0200775
0.0197176
0.0194346
0.0192527
0.019194
0.0191984
0.0144733
0.0144397
0.0143169
0.0141029
0.013835
0.0135442
0.0132558
0.012989
0.0127576
0.0125709
0.0124353
0.0123548
0.0123321
0.0123686
0.0124653
0.0126225
0.0128403
0.0131183
0.0134554
0.0138499
0.0142992
0.0147996
0.0153462
0.0159327
0.0165512
0.0171926
0.0178463
0.0185004
0.0191422
0.0197582
0.0203348
0.0208587
0.0213173
0.0216994
0.0219959
0.0222
0.0223078
0.0223187
0.0222357
0.0220653
0.0218175
0.021506
0.0211476
0.0207618
0.0203708
0.0199986
0.0196704
0.0194114
0.0192427
0.0191867
0.0191904
0.0146251
0.0145798
0.0144529
0.0142636
0.0140351
0.0137904
0.0135485
0.0133245
0.0131299
0.0129729
0.0128594
0.0127936
0.0127781
0.0128147
0.0129047
0.0130487
0.0132469
0.0134991
0.0138045
0.0141616
0.014568
0.0150205
0.0155145
0.0160444
0.0166031
0.0171823
0.0177724
0.0183628
0.018942
0.019498
0.0200184
0.0204915
0.0209059
0.0212518
0.0215211
0.0217079
0.021809
0.0218241
0.021756
0.021611
0.0213982
0.0211299
0.0208211
0.0204891
0.0201529
0.0198328
0.0195493
0.0193228
0.0191698
0.0191125
0.0191116
0.0148853
0.0148127
0.0146521
0.0144583
0.0142399
0.0140149
0.0137971
0.0135977
0.0134259
0.013288
0.0131891
0.0131326
0.013121
0.0131559
0.0132387
0.0133701
0.0135506
0.0137803
0.0140585
0.0143843
0.0147555
0.0151693
0.0156218
0.0161079
0.0166212
0.0171542
0.0176979
0.0182428
0.018778
0.0192924
0.0197745
0.0202133
0.0205983
0.0209202
0.0211713
0.0213463
0.0214422
0.0214586
0.0213983
0.0212671
0.0210736
0.0208292
0.0205474
0.0202439
0.0199356
0.0196403
0.0193756
0.0191587
0.0190044
0.0189312
0.0189179
0.0152137
0.0151043
0.0148927
0.0146786
0.0144551
0.0142363
0.0140308
0.0138467
0.01369
0.0135654
0.0134765
0.0134258
0.0134153
0.0134465
0.0135206
0.0136385
0.0138009
0.0140081
0.0142599
0.0145556
0.0148938
0.0152721
0.0156872
0.0161346
0.0166086
0.0171023
0.0176075
0.0181152
0.0186153
0.0190973
0.0195501
0.0199632
0.0203264
0.0206307
0.0208688
0.0210352
0.021127
0.0211437
0.0210878
0.0209648
0.0207826
0.0205518
0.020285
0.0199965
0.0197015
0.0194159
0.019155
0.0189336
0.018765
0.0186612
0.018627
0.0155751
0.0154236
0.0151505
0.0149049
0.0146644
0.0144404
0.0142372
0.0140593
0.0139103
0.0137928
0.0137088
0.01366
0.0136475
0.0136726
0.0137364
0.0138398
0.0139836
0.0141686
0.014395
0.0146626
0.0149705
0.015317
0.0156994
0.0161138
0.0165552
0.0170173
0.0174925
0.0179723
0.0184468
0.018906
0.0193392
0.0197357
0.0200855
0.0203796
0.0206104
0.0207723
0.020862
0.0208789
0.020825
0.0207053
0.0205274
0.020301
0.0200382
0.0197521
0.019457
0.0191669
0.0188961
0.018657
0.0184626
0.018317
0.0182557
0.0159388
0.0157431
0.0154034
0.0151195
0.0148544
0.0146174
0.0144089
0.0142304
0.0140828
0.013967
0.0138834
0.0138325
0.0138148
0.0138313
0.0138826
0.01397
0.0140945
0.0142571
0.0144586
0.0146994
0.0149791
0.0152968
0.0156503
0.0160366
0.0164511
0.0168882
0.0173407
0.0178004
0.0182579
0.0187032
0.0191254
0.0195139
0.0198583
0.0201494
0.0203789
0.0205409
0.0206316
0.0206498
0.020597
0.0204778
0.0202992
0.0200705
0.0198031
0.0195095
0.0192032
0.0188975
0.0186053
0.0183381
0.0181086
0.0179129
0.0178205
0.0162787
0.0160388
0.0156309
0.015305
0.0150104
0.014755
0.0145355
0.0143509
0.0141998
0.0140809
0.0139933
0.0139365
0.0139103
0.0139152
0.0139519
0.0140215
0.0141254
0.0142651
0.0144418
0.0146564
0.0149096
0.0152008
0.0155288
0.015891
0.0162837
0.0167016
0.0171381
0.0175852
0.0180337
0.0184732
0.018893
0.019282
0.0196292
0.0199247
0.0201598
0.0203274
0.0204232
0.0204452
0.0203943
0.0202744
0.020092
0.0198561
0.0195775
0.0192685
0.0189421
0.0186112
0.0182883
0.0179841
0.0177119
0.0174603
0.0173344
0.0165729
0.0162896
0.0158139
0.0154445
0.0151177
0.0148404
0.014606
0.0144111
0.014252
0.0141259
0.0140304
0.0139641
0.013926
0.0139164
0.0139358
0.0139855
0.0140672
0.0141828
0.0143342
0.014523
0.0147505
0.0150169
0.0153219
0.0156635
0.0160386
0.0164426
0.0168691
0.0173103
0.017757
0.0181989
0.0186247
0.0190227
0.0193812
0.0196893
0.0199374
0.0201174
0.0202238
0.0202536
0.0202071
0.0200871
0.0198997
0.0196535
0.0193591
0.0190285
0.0186748
0.0183109
0.0179493
0.0176005
0.0172795
0.0169673
0.016806
0.0168017
0.0164767
0.0159351
0.015522
0.0151618
0.0148605
0.0146085
0.0144
0.0142296
0.0140925
0.0139855
0.013906
0.0138527
0.0138253
0.0138245
0.0138518
0.0139092
0.0139991
0.0141241
0.0142866
0.0144886
0.0147313
0.0150149
0.0153385
0.0156995
0.0160939
0.0165156
0.0169571
0.0174092
0.0178612
0.0183013
0.0187171
0.0190959
0.0194256
0.0196953
0.0198957
0.0200197
0.0200632
0.0200251
0.0199077
0.019716
0.0194584
0.0191452
0.0187887
0.0184019
0.0179984
0.0175914
0.0171916
0.016816
0.0164392
0.0162409
0.0169478
0.016583
0.0159781
0.0155223
0.0151287
0.0148023
0.0145307
0.0143063
0.0141214
0.0139703
0.0138482
0.013752
0.0136799
0.0136315
0.0136073
0.0136092
0.0136396
0.0137016
0.0137985
0.0139334
0.0141092
0.0143281
0.0145912
0.0148984
0.0152479
0.0156362
0.0160577
0.0165051
0.0169691
0.0174388
0.0179016
0.0183443
0.0187531
0.0191144
0.0194157
0.0196459
0.0197963
0.0198612
0.019838
0.0197276
0.0195344
0.0192661
0.0189331
0.0185476
0.0181236
0.0176751
0.0172167
0.0167599
0.0163244
0.0158786
0.0156414
0.0169952
0.0165928
0.0159279
0.0154311
0.0150046
0.0146527
0.0143604
0.014118
0.0139163
0.0137481
0.0136077
0.0134913
0.0133968
0.0133235
0.0132724
0.0132454
0.0132456
0.0132767
0.0133428
0.013448
0.013596
0.0137901
0.0140325
0.0143238
0.0146632
0.015048
0.015473
0.0159311
0.0164132
0.0169078
0.0174019
0.0178811
0.0183303
0.0187343
0.0190784
0.0193498
0.0195374
0.0196336
0.0196337
0.0195374
0.0193477
0.0190716
0.0187194
0.0183038
0.0178394
0.0173417
0.0168266
0.0163071
0.0158063
0.0152865
0.0150079
0.0169291
0.0164916
0.0157705
0.0152347
0.0147765
0.0143992
0.0140854
0.0138235
0.0136027
0.0134146
0.0132527
0.0131125
0.0129917
0.0128896
0.0128075
0.0127476
0.0127136
0.0127101
0.0127418
0.012814
0.0129315
0.0130987
0.0133187
0.0135935
0.0139231
0.0143056
0.0147368
0.0152096
0.0157151
0.0162417
0.0167756
0.0173012
0.0178021
0.0182609
0.0186609
0.0189866
0.0192246
0.0193644
0.0193992
0.0193263
0.0191475
0.0188689
0.0185004
0.0180551
0.0175487
0.0169983
0.0164218
0.0158341
0.0152622
0.0146624
0.0143393
0.0167359
0.0162658
0.0154926
0.0149203
0.0144319
0.0140297
0.0136939
0.0134112
0.0131692
0.0129585
0.0127717
0.012604
0.0124528
0.0123177
0.0121999
0.0121024
0.0120296
0.0119866
0.0119795
0.0120144
0.0120974
0.0122339
0.0124287
0.0126847
0.0130032
0.0133836
0.0138221
0.0143126
0.0148461
0.0154111
0.015993
0.0165753
0.0171397
0.0176669
0.0181374
0.0185329
0.0188368
0.0190353
0.0191188
0.0190821
0.0189247
0.0186514
0.0182717
0.0177992
0.0172507
0.0166452
0.0160031
0.0153416
0.0146924
0.0140055
0.0136337
0.0164028
0.0159031
0.0150821
0.0144762
0.0139592
0.0135328
0.0131747
0.0128699
0.0126048
0.0123687
0.0121536
0.0119545
0.0117686
0.0115956
0.0114371
0.0112967
0.0111794
0.0110914
0.0110396
0.0110316
0.0110745
0.0111754
0.0113402
0.0115736
0.0118782
0.0122546
0.0127003
0.0132098
0.0137748
0.0143837
0.0150216
0.0156708
0.0163112
0.0169213
0.0174787
0.0179616
0.0183496
0.0186252
0.0187749
0.0187902
0.0186679
0.0184111
0.0180282
0.0175333
0.0169444
0.0162825
0.0155711
0.0148303
0.014097
0.0133144
0.0128892
0.0159183
0.015392
0.0145281
0.0138914
0.0133479
0.012898
0.0125175
0.0121894
0.011899
0.0116347
0.011388
0.0111533
0.010928
0.0107118
0.0105069
0.0103175
0.0101493
0.0100095
0.00990628
0.00984823
0.00984418
0.0099026
0.0100311
0.0102361
0.0105218
0.0108905
0.0113412
0.0118696
0.012468
0.0131251
0.013826
0.0145518
0.0152811
0.0159895
0.0166517
0.0172418
0.017735
0.0181093
0.0183465
0.0184337
0.0183643
0.0181386
0.017764
0.0172541
0.0166285
0.0159105
0.0151269
0.0143012
0.0134766
0.0125885
0.0121041
0.015272
0.0147225
0.0138208
0.0131566
0.0125885
0.012116
0.0117127
0.0113603
0.0110426
0.0107473
0.0104652
0.0101906
0.00992074
0.00965579
0.0093983
0.00915305
0.0089267
0.00872742
0.00856452
0.00844807
0.00838844
0.00839582
0.00847971
0.00864836
0.00890819
0.00926324
0.00971459
0.0102593
0.0108909
0.011599
0.0123685
0.0131802
0.0140108
0.0148336
0.0156197
0.0163389
0.0169613
0.0174594
0.0178093
0.0179927
0.0179984
0.0178231
0.0174719
0.0169581
0.0163021
0.01553
0.0146723
0.0137565
0.0128326
0.0118281
0.0112776
0.0144551
0.0138857
0.0129517
0.0122632
0.0116728
0.0111786
0.0107525
0.0103745
0.0100274
0.00969805
0.00937682
0.00905775
0.00873818
0.00841845
0.00810163
0.00779316
0.00750056
0.00723304
0.0070012
0.00681657
0.0066912
0.00663718
0.00666607
0.00678835
0.0070128
0.00734578
0.00779082
0.00834696
0.00900923
0.00976865
0.0106107
0.0115158
0.0124595
0.0134126
0.0143425
0.0152144
0.0159928
0.0166434
0.0171355
0.0174443
0.0175524
0.0174515
0.0171438
0.016641
0.0159644
0.0151426
0.0142103
0.0131993
0.0121682
0.0110348
0.0104106
0.0134601
0.0128746
0.0119138
0.0112046
0.010594
0.0100791
0.00962994
0.00922525
0.00884675
0.00848043
0.00811629
0.00774816
0.00737342
0.00699268
0.00660947
0.00622988
0.00586228
0.00551699
0.00520587
0.00494201
0.00473926
0.00461173
0.00457329
0.00463692
0.00481407
0.00511387
0.00554283
0.00610249
0.00678999
0.00759835
0.00851424
0.00951834
0.0105852
0.0116838
0.0127777
0.0138271
0.0147902
0.0156253
0.0162937
0.016762
0.0170053
0.0170089
0.01677
0.0162981
0.0156147
0.0147505
0.0137449
0.0126349
0.0114882
0.0102125
0.00950609
0.0122814
0.0116835
0.0107019
0.00997539
0.00934697
0.00881245
0.00834018
0.00790775
0.00749585
0.00708975
0.00667903
0.00625731
0.00582201
0.00537397
0.00491714
0.00445825
0.0040065
0.00357327
0.00317175
0.00281659
0.00252352
0.00230884
0.0021889
0.00217945
0.00229498
0.00254781
0.00294793
0.00350003
0.00420401
0.00505559
0.00604339
0.00714908
0.00834702
0.00960435
0.0108816
0.0121337
0.013312
0.0143665
0.015249
0.0159163
0.0163337
0.0164779
0.0163397
0.0159245
0.0152527
0.0143574
0.0132824
0.0120706
0.0108002
0.00936765
0.00856966
0.010915
0.0103087
0.00931224
0.00857214
0.00792822
0.00737519
0.00687996
0.00641896
0.00597195
0.00552354
0.00506285
0.00458331
0.00408232
0.0035609
0.00302337
0.00247702
0.00193186
0.00140026
0.000896714
0.000437489
4.0231e-05
-0.00027647
-0.000493616
-0.000592432
-0.0005551
-0.000365641
-1.04379e-05
0.00051969
0.00122817
0.00211352
0.00316755
0.00437373
0.00570711
0.0071339
0.00861176
0.0100908
0.0115153
0.0128261
0.0139644
0.014875
0.0155114
0.0158394
0.0158406
0.0155145
0.014879
0.0139683
0.0128312
0.0115165
0.010115
0.00851035
0.00761059
0.00935934
0.00874848
0.00774312
0.00699304
0.00633608
0.00576584
0.005248
0.00475794
0.00427456
0.0037818
0.00326834
0.00272733
0.00215609
0.00155575
0.000930908
0.000289349
-0.000358235
-0.000998497
-0.0016157
-0.002192
-0.0027078
-0.00314216
-0.00347329
-0.00367922
-0.0037385
-0.0036311
-0.00333941
-0.00284887
-0.00215174
-0.00124609
-0.000135849
0.00116535
0.00263428
0.0042372
0.00592983
0.00765789
0.00935867
0.0109635
0.0124016
0.0136043
0.0145107
0.0150726
0.0152597
0.0150628
0.014495
0.0135905
0.0124025
0.0109866
0.00944749
0.00765491
0.00664255
0.00761453
0.00700294
0.00599457
0.00523813
0.00457065
0.00398474
0.00344504
0.00292598
0.00240564
0.00186728
0.00129908
0.000693853
4.87537e-05
-0.000635106
-0.00135295
-0.00209664
-0.00285487
-0.00361344
-0.00435544
-0.0050615
-0.0057101
-0.00627791
-0.0067403
-0.00707193
-0.00724749
-0.00724259
-0.00703498
-0.00660451
-0.00593836
-0.00502992
-0.00387802
-0.00249221
-0.000892749
0.000887993
0.00280492
0.00480033
0.00680505
0.00874082
0.010524
0.0120707
0.0133032
0.0141561
0.0145836
0.0145642
0.0141035
0.0132336
0.0120112
0.010499
0.00881743
0.00682105
0.0056847
0.00568301
0.00507428
0.00406848
0.00330918
0.00263382
0.0020341
0.00147383
0.000926593
0.000369638
-0.00021446
-0.000838124
-0.00150898
-0.00223018
-0.00300076
-0.00381592
-0.00466729
-0.00554309
-0.0064284
-0.00730523
-0.00815279
-0.00894765
-0.00966417
-0.0102748
-0.0107508
-0.0110628
-0.0111819
-0.0110806
-0.010733
-0.0101202
-0.00923021
-0.00805568
-0.00660078
-0.00488143
-0.00292711
-0.000782214
0.00149352
0.00382548
0.00612621
0.00829898
0.0102433
0.0118619
0.0130693
0.0137997
0.0140151
0.0137097
0.0129106
0.0116767
0.0100775
0.00825086
0.00603502
0.00476288
0.00356919
0.00296658
0.0019684
0.00120958
0.000529091
-8.21417e-05
-0.00066093
-0.00123449
-0.00182641
-0.0024549
-0.0031331
-0.00386923
-0.00466693
-0.00552554
-0.00644042
-0.0074031
-0.00840154
-0.00942018
-0.0104401
-0.0114392
-0.0123923
-0.0132715
-0.0140462
-0.0146845
-0.0151527
-0.0154172
-0.0154452
-0.0152051
-0.0146704
-0.0138225
-0.0126483
-0.0111447
-0.00932181
-0.00720463
-0.00483494
-0.00227272
0.000403593
0.00309842
0.00570225
0.00809711
0.0101644
0.0117946
0.0128979
0.0134145
0.0133222
0.0126392
0.0114241
0.00975241
0.00778119
0.00533102
0.00391109
0.0012794
0.000685629
-0.000300598
-0.00105586
-0.0017386
-0.00235848
-0.00295276
-0.00354944
-0.00417301
-0.00484261
-0.00557228
-0.00637108
-0.00724331
-0.00818885
-0.00920338
-0.0102786
-0.0114022
-0.0125584
-0.0137273
-0.0148857
-0.0160068
-0.0170602
-0.0180131
-0.0188296
-0.0194723
-0.0199027
-0.0200824
-0.0199744
-0.0195435
-0.0187636
-0.0176156
-0.0160879
-0.0141834
-0.0119206
-0.00933665
-0.00648965
-0.00345971
-0.000348692
0.00272219
0.00561751
0.00819577
0.0103204
0.0118728
0.0127656
0.0129542
0.0124424
0.011285
0.00956207
0.00745082
0.00475289
0.00317318
-0.00117835
-0.00176129
-0.00273228
-0.00348127
-0.00416321
-0.00478814
-0.00539362
-0.00600849
-0.00665828
-0.00736331
-0.00813878
-0.00899484
-0.00993675
-0.0109652
-0.0120763
-0.0132622
-0.0145107
-0.0158056
-0.0171264
-0.0184489
-0.0197445
-0.0209812
-0.0221232
-0.0231314
-0.0239644
-0.024579
-0.0249311
-0.0249778
-0.0246758
-0.0239912
-0.0228972
-0.0213731
-0.0194132
-0.0170278
-0.0142474
-0.0111257
-0.00774178
-0.00420132
-0.000635212
0.00280464
0.00595332
0.00864474
0.0107269
0.0120787
0.0126259
0.0123512
0.0113002
0.00955471
0.00731301
0.00435598
0.00260483
-0.00379474
-0.00436581
-0.00531964
-0.00606014
-0.00673804
-0.00736349
-0.0079743
-0.00860027
-0.00926824
-0.0100001
-0.0108125
-0.0117171
-0.0127204
-0.0138242
-0.0150256
-0.0163169
-0.0176865
-0.0191177
-0.0205899
-0.0220776
-0.0235512
-0.0249763
-0.0263149
-0.0275247
-0.0285604
-0.0293741
-0.0299163
-0.0301379
-0.0299882
-0.0294248
-0.0284126
-0.0269211
-0.0249348
-0.0224544
-0.0195018
-0.0161234
-0.0123945
-0.00842129
-0.00434154
-0.000321458
0.00345126
0.00677958
0.00947419
0.0113739
0.0123668
0.0124059
0.0115208
0.00979044
0.00743398
0.00420944
0.00227581
-0.00655959
-0.00711901
-0.00805551
-0.00878592
-0.00945627
-0.0100765
-0.0106848
-0.0113121
-0.0119871
-0.0127335
-0.0135703
-0.0145109
-0.0155635
-0.0167313
-0.0180125
-0.0194004
-0.0208833
-0.0224449
-0.024064
-0.0257145
-0.0273652
-0.0289802
-0.0305188
-0.0319358
-0.0331823
-0.0342059
-0.0349519
-0.0353648
-0.0353881
-0.0349691
-0.0340634
-0.0326327
-0.0306498
-0.0281048
-0.0250085
-0.0213981
-0.0173417
-0.0129427
-0.00834173
-0.00371615
0.000725671
0.00475575
0.00814458
0.010685
0.0122186
0.0126592
0.012011
0.0103437
0.00789544
0.00439881
0.00227263
-0.00946248
-0.0100121
-0.0109333
-0.0116528
-0.0123117
-0.0129195
-0.0135148
-0.0141305
-0.0147974
-0.0155422
-0.0163864
-0.017346
-0.0184315
-0.0196477
-0.0209944
-0.0224656
-0.0240505
-0.0257326
-0.0274904
-0.029297
-0.0311201
-0.032922
-0.0346596
-0.036285
-0.0377457
-0.0389849
-0.0399432
-0.0405591
-0.0407704
-0.0405142
-0.0397369
-0.0383922
-0.0364408
-0.0338612
-0.0306519
-0.0268385
-0.0224791
-0.0176701
-0.0125511
-0.00730622
-0.00216086
0.00262771
0.00678859
0.0100636
0.0122395
0.0131794
0.0128511
0.011306
0.00879753
0.00502896
0.00270152
-0.0124935
-0.0130371
-0.013948
-0.0146565
-0.0152995
-0.0158856
-0.0164545
-0.0170415
-0.0176808
-0.0184027
-0.0192325
-0.0201893
-0.0212865
-0.0225313
-0.0239248
-0.0254624
-0.0271337
-0.0289225
-0.0308071
-0.0327595
-0.0347463
-0.0367279
-0.0386592
-0.0404894
-0.0421626
-0.0436181
-0.0447917
-0.0456161
-0.0460233
-0.0459424
-0.0453104
-0.0440717
-0.0421758
-0.0395887
-0.036296
-0.0323098
-0.0276754
-0.0224791
-0.0168545
-0.0109874
-0.00511559
0.000478083
0.00548211
0.00958403
0.0125078
0.0140543
0.0141411
0.0127894
0.0102621
0.00622752
0.00369187
-0.0156444
-0.0161884
-0.0170972
-0.0177958
-0.0184175
-0.01897
-0.0194949
-0.0200312
-0.0206179
-0.0212902
-0.0220781
-0.0230052
-0.0240881
-0.0253368
-0.0267543
-0.0283374
-0.0300763
-0.0319548
-0.0339505
-0.036035
-0.0381731
-0.0403237
-0.0424393
-0.0444663
-0.0463456
-0.0480126
-0.0493985
-0.050431
-0.0510359
-0.0511355
-0.050658
-0.049538
-0.0477145
-0.0451411
-0.0417899
-0.0376583
-0.0327771
-0.0272189
-0.0211073
-0.0146242
-0.00801365
-0.00157905
0.00433061
0.00934763
0.0131268
0.0153947
0.0160039
0.0149305
0.0124367
0.00814883
0.0054001
-0.0189098
-0.0194638
-0.0203832
-0.0210737
-0.0216671
-0.0221706
-0.0226288
-0.0230863
-0.0235888
-0.0241783
-0.0248909
-0.0257556
-0.0267932
-0.0280169
-0.029432
-0.0310363
-0.0328206
-0.0347687
-0.0368577
-0.0390576
-0.0413319
-0.0436375
-0.0459244
-0.0481363
-0.0502107
-0.0520795
-0.0536694
-0.0549031
-0.0557006
-0.055979
-0.0556567
-0.0546586
-0.0529155
-0.0503681
-0.0469751
-0.042719
-0.0376143
-0.031718
-0.0251394
-0.0180515
-0.0106982
-0.00339647
0.00347235
0.00948701
0.014229
0.0173399
0.0185907
0.0178943
0.0154992
0.0109785
0.00801426
-0.0222888
-0.0228667
-0.0238145
-0.0244996
-0.0250555
-0.0254891
-0.0258512
-0.0261943
-0.0265733
-0.0270393
-0.0276366
-0.0284005
-0.029357
-0.0305228
-0.0319055
-0.0335041
-0.0353096
-0.0373054
-0.0394674
-0.0417643
-0.0441577
-0.046602
-0.0490446
-0.0514264
-0.0536815
-0.0557379
-0.0575181
-0.0589402
-0.0599184
-0.0603652
-0.0601898
-0.059308
-0.0576427
-0.0551228
-0.0516938
-0.0473232
-0.0420094
-0.0357914
-0.028762
-0.0210802
-0.0129833
-0.00479453
0.00307972
0.010169
0.0159805
0.0200616
0.0220852
0.0218799
0.0196629
0.0149389
0.0117594
-0.0257882
-0.0264089
-0.0274094
-0.0280916
-0.0285967
-0.0289329
-0.0291604
-0.0293437
-0.0295508
-0.0298445
-0.0302791
-0.0308981
-0.0317332
-0.0328048
-0.0341227
-0.0356868
-0.037488
-0.0395085
-0.0417228
-0.0440974
-0.0465916
-0.0491571
-0.0517384
-0.0542728
-0.0566912
-0.0589175
-0.0608702
-0.0624625
-0.0636034
-0.0641995
-0.0641539
-0.0633738
-0.0617726
-0.059269
-0.0557964
-0.0513079
-0.0457854
-0.0392502
-0.0317759
-0.0235041
-0.0146598
-0.00556475
0.00335818
0.0115963
0.018584
0.0237688
0.0267093
0.0271266
0.0251835
0.0202959
0.0169041
-0.0294254
-0.0301147
-0.0311997
-0.0318805
-0.0323149
-0.0325155
-0.032558
-0.0325245
-0.0325
-0.0325631
-0.0327805
-0.0332049
-0.0338743
-0.0348129
-0.0360324
-0.0375328
-0.039304
-0.0413267
-0.0435728
-0.0460063
-0.0485832
-0.0512522
-0.0539541
-0.0566229
-0.0591853
-0.0615614
-0.0636653
-0.0654053
-0.0666854
-0.0674063
-0.0674652
-0.0667615
-0.0651993
-0.0626881
-0.0591497
-0.0545238
-0.0487766
-0.0419113
-0.0339821
-0.0251105
-0.0155044
-0.00547665
0.00454202
0.0140054
0.0222806
0.0287117
0.0327287
0.0339203
0.0323672
0.0273675
0.0237692
-0.0332344
-0.0340267
-0.0352369
-0.0359139
-0.036247
-0.0362591
-0.0360502
-0.0357273
-0.0353989
-0.0351629
-0.0351008
-0.0352758
-0.0357324
-0.0364981
-0.0375855
-0.0389938
-0.0407109
-0.0427147
-0.0449739
-0.0474487
-0.0500915
-0.0528469
-0.055652
-0.0584364
-0.0611228
-0.0636271
-0.0658585
-0.0677205
-0.0691119
-0.0699274
-0.0700589
-0.0693975
-0.0678387
-0.0652836
-0.0616427
-0.0568434
-0.0508369
-0.0436089
-0.0351939
-0.0256922
-0.015291
-0.00428832
0.00688628
0.017663
0.0273486
0.035184
0.0404588
0.0426027
0.0415811
0.0365356
0.0327393
-0.0372746
-0.0382155
-0.0396007
-0.0402631
-0.0404472
-0.0401961
-0.0396476
-0.0389436
-0.0382233
-0.0376084
-0.0371975
-0.0370644
-0.0372596
-0.0378129
-0.0387361
-0.0400264
-0.0416682
-0.0436351
-0.0458914
-0.0483926
-0.0510869