# vtk DataFile Version 2.0
insac
ASCII
DATASET STRUCTURED_GRID
DIMENSIONS 51 51 1
POINTS 2601 float
0 0 0
0.02 0 0
0.04 0 0
0.06 0 0
0.08 0 0
0.1 0 0
0.12 0 0
0.14 0 0
0.16 0 0
0.18 0 0
0.2 0 0
0.22 0 0
0.24 0 0
0.26 0 0
0.28 0 0
0.3 0 0
0.32 0 0
0.34 0 0
0.36 0 0
0.38 0 0
0.4 0 0
0.42 0 0
0.44 0 0
0.46 0 0
0.48 0 0
0.5 0 0
0.52 0 0
0.54 0 0
0.56 0 0
0.58 0 0
0.6 0 0
0.62 0 0
0.64 0 0
0.66 0 0
0.68 0 0
0.7 0 0
0.72 0 0
0.74 0 0
0.76 0 0
0.78 0 0
0.8 0 0
0.82 0 0
0.84 0 0
0.86 0 0
0.88 0 0
0.9 0 0
0.92 0 0
0.94 0 0
0.96 0 0
0.98 0 0
1 0 0
0 0.02 0
0.02 0.02 0
0.04 0.02 0
0.06 0.02 0
0.08 0.02 0
0.1 0.02 0
0.12 0.02 0
0.14 0.02 0
0.16 0.02 0
0.18 0.02 0
0.2 0.02 0
0.22 0.02 0
0.24 0.02 0
0.26 0.02 0
0.28 0.02 0
0.3 0.02 0
0.32 0.02 0
0.34 0.02 0
0.36 0.02 0
0.38 0.02 0
0.4 0.02 0
0.42 0.02 0
0.44 0.02 0
0.46 0.02 0
0.48 0.02 0
0.5 0.02 0
0.52 0.02 0
0.54 0.02 0
0.56 0.02 0
0.58 0.02 0
0.6 0.02 0
0.62 0.02 0
0.64 0.02 0
0.66 0.02 0
0.68 0.02 0
0.7 0.02 0
0.72 0.02 0
0.74 0.02 0
0.76 0.02 0
0.78 0.02 0
0.8 0.02 0
0.82 0.02 0
0.84 0.02 0
0.86 0.02 0
0.88 0.02 0
0.9 0.02 0
0.92 0.02 0
0.94 0.02 0
0.96 0.02 0
0.98 0.02 0
1 0.02 0
0 0.04 0
0.02 0.04 0
0.04 0.04 0
0.06 0.04 0
0.08 0.04 0
0.1 0.04 0
0.12 0.04 0
0.14 0.04 0
0.16 0.04 0
0.18 0.04 0
0.2 0.04 0
0.22 0.04 0
0.24 0.04 0
0.26 0.04 0
0.28 0.04 0
0.3 0.04 0
0.32 0.04 0
0.34 0.04 0
0.36 0.04 0
0.38 0.04 0
0.4 0.04 0
0.42 0.04 0
0.44 0.04 0
0.46 0.04 0
0.48 0.04 0
0.5 0.04 0
0.52 0.04 0
0.54 0.04 0
0.56 0.04 0
0.58 0.04 0
0.6 0.04 0
0.62 0.04 0
0.64 0.04 0
0.66 0.04 0
0.68 0.04 0
0.7 0.04 0
0.72 0.04 0
0.74 0.04 0
0.76 0.04 0
0.78 0.04 0
0.8 0.04 0
0.82 0.04 0
0.84 0.04 0
0.86 0.04 0
0.88 0.04 0
0.9 0.04 0
0.92 0.04 0
0.94 0.04 0
0.96 0.04 0
0.98 0.04 0
1 0.04 0
0 0.06 0
0.02 0.06 0
0.04 0.06 0
0.06 0.06 0
0.08 0.06 0
0.1 0.06 0
0.12 0.06 0
0.14 0.06 0
0.16 0.06 0
0.18 0.06 0
0.2 0.06 0
0.22 0.06 0
0.24 0.06 0
0.26 0.06 0
0.28 0.06 0
0.3 0.06 0
0.32 0.06 0
0.34 0.06 0
0.36 0.06 0
0.38 0.06 0
0.4 0.06 0
0.42 0.06 0
0.44 0.06 0
0.46 0.06 0
0.48 0.06 0
0.5 0.06 0
0.52 0.06 0
0.54 0.06 0
0.56 0.06 0
0.58 0.06 0
0.6 0.06 0
0.62 0.06 0
0.64 0.06 0
0.66 0.06 0
0.68 0.06 0
0.7 0.06 0
0.72 0.06 0
0.74 0.06 0
0.76 0.06 0
0.78 0.06 0
0.8 0.06 0
0.82 0.06 0
0.84 0.06 0
0.86 0.06 0
0.88 0.06 0
0.9 0.06 0
0.92 0.06 0
0.94 0.06 0
0.96 0.06 0
0.98 0.06 0
1 0.06 0
0 0.08 0
0.02 0.08 0
0.04 0.08 0
0.06 0.08 0
0.08 0.08 0
0.1 0.08 0
0.12 0.08 0
0.14 0.08 0
0.16 0.08 0
0.18 0.08 0
0.2 0.08 0
0.22 0.08 0
0.24 0.08 0
0.26 0.08 0
0.28 0.08 0
0.3 0.08 0
0.32 0.08 0
0.34 0.08 0
0.36 0.08 0
0.38 0.08 0
0.4 0.08 0
0.42 0.08 0
0.44 0.08 0
0.46 0.08 0
0.48 0.08 0
0.5 0.08 0
0.52 0.08 0
0.54 0.08 0
0.56 0.08 0
0.58 0.08 0
0.6 0.08 0
0.62 0.08 0
0.64 0.08 0
0.66 0.08 0
0.68 0.08 0
0.7 0.08 0
0.72 0.08 0
0.74 0.08 0
0.76 0.08 0
0.78 0.08 0
0.8 0.08 0
0.82 0.08 0
0.84 0.08 0
0.86 0.08 0
0.88 0.08 0
0.9 0.08 0
0.92 0.08 0
0.94 0.08 0
0.96 0.08 0
0.98 0.08 0
1 0.08 0
0 0.1 0
0.02 0.1 0
0.04 0.1 0
0.06 0.1 0
0.08 0.1 0
0.1 0.1 0
0.12 0.1 0
0.14 0.1 0
0.16 0.1 0
0.18 0.1 0
0.2 0.1 0
0.22 0.1 0
0.24 0.1 0
0.26 0.1 0
0.28 0.1 0
0.3 0.1 0
0.32 0.1 0
0.34 0.1 0
0.36 0.1 0
0.38 0.1 0
0.4 0.1 0
0.42 0.1 0
0.44 0.1 0
0.46 0.1 0
0.48 0.1 0
0.5 0.1 0
0.52 0.1 0
0.54 0.1 0
0.56 0.1 0
0.58 0.1 0
0.6 0.1 0
0.62 0.1 0
0.64 0.1 0
0.66 0.1 0
0.68 0.1 0
0.7 0.1 0
0.72 0.1 0
0.74 0.1 0
0.76 0.1 0
0.78 0.1 0
0.8 0.1 0
0.82 0.1 0
0.84 0.1 0
0.86 0.1 0
0.88 0.1 0
0.9 0.1 0
0.92 0.1 0
0.94 0.1 0
0.96 0.1 0
0.98 0.1 0
1 0.1 0
0 0.12 0
0.02 0.12 0
0.04 0.12 0
0.06 0.12 0
0.08 0.12 0
0.1 0.12 0
0.12 0.12 0
0.14 0.12 0
0.16 0.12 0
0.18 0.12 0
0.2 0.12 0
0.22 0.12 0
0.24 0.12 0
0.26 0.12 0
0.28 0.12 0
0.3 0.12 0
0.32 0.12 0
0.34 0.12 0
0.36 0.12 0
0.38 0.12 0
0.4 0.12 0
0.42 0.12 0
0.44 0.12 0
0.46 0.12 0
0.48 0.12 0
0.5 0.12 0
0.52 0.12 0
0.54 0.12 0
0.56 0.12 0
0.58 0.12 0
0.6 0.12 0
0.62 0.12 0
0.64 0.12 0
0.66 0.12 0
0.68 0.12 0
0.7 0.12 0
0.72 0.12 0
0.74 0.12 0
0.76 0.12 0
0.78 0.12 0
0.8 0.12 0
0.82 0.12 0
0.84 0.12 0
0.86 0.12 0
0.88 0.12 0
0.9 0.12 0
0.92 0.12 0
0.94 0.12 0
0.96 0.12 0
0.98 0.12 0
1 0.12 0
0 0.14 0
0.02 0.14 0
0.04 0.14 0
0.06 0.14 0
0.08 0.14 0
0.1 0.14 0
0.12 0.14 0
0.14 0.14 0
0.16 0.14 0
0.18 0.14 0
0.2 0.14 0
0.22 0.14 0
0.24 0.14 0
0.26 0.14 0
0.28 0.14 0
0.3 0.14 0
0.32 0.14 0
0.34 0.14 0
0.36 0.14 0
0.38 0.14 0
0.4 0.14 0
0.42 0.14 0
0.44 0.14 0
0.46 0.14 0
0.48 0.14 0
0.5 0.14 0
0.52 0.14 0
0.54 0.14 0
0.56 0.14 0
0.58 0.14 0
0.6 0.14 0
0.62 0.14 0
0.64 0.14 0
0.66 0.14 0
0.68 0.14 0
0.7 0.14 0
0.72 0.14 0
0.74 0.14 0
0.76 0.14 0
0.78 0.14 0
0.8 0.14 0
0.82 0.14 0
0.84 0.14 0
0.86 0.14 0
0.88 0.14 0
0.9 0.14 0
0.92 0.14 0
0.94 0.14 0
0.96 0.14 0
0.98 0.14 0
1 0.14 0
0 0.16 0
0.02 0.16 0
0.04 0.16 0
0.06 0.16 0
0.08 0.16 0
0.1 0.16 0
0.12 0.16 0
0.14 0.16 0
0.16 0.16 0
0.18 0.16 0
0.2 0.16 0
0.22 0.16 0
0.24 0.16 0
0.26 0.16 0
0.28 0.16 0
0.3 0.16 0
0.32 0.16 0
0.34 0.16 0
0.36 0.16 0
0.38 0.16 0
0.4 0.16 0
0.42 0.16 0
0.44 0.16 0
0.46 0.16 0
0.48 0.16 0
0.5 0.16 0
0.52 0.16 0
0.54 0.16 0
0.56 0.16 0
0.58 0.16 0
0.6 0.16 0
0.62 0.16 0
0.64 0.16 0
0.66 0.16 0
0.68 0.16 0
0.7 0.16 0
0.72 0.16 0
0.74 0.16 0
0.76 0.16 0
0.78 0.16 0
0.8 0.16 0
0.82 0.16 0
0.84 0.16 0
0.86 0.16 0
0.88 0.16 0
0.9 0.16 0
0.92 0.16 0
0.94 0.16 0
0.96 0.16 0
0.98 0.16 0
1 0.16 0
0 0.18 0
0.02 0.18 0
0.04 0.18 0
0.06 0.18 0
0.08 0.18 0
0.1 0.18 0
0.12 0.18 0
0.14 0.18 0
0.16 0.18 0
0.18 0.18 0
0.2 0.18 0
0.22 0.18 0
0.24 0.18 0
0.26 0.18 0
0.28 0.18 0
0.3 0.18 0
0.32 0.18 0
0.34 0.18 0
0.36 0.18 0
0.38 0.18 0
0.4 0.18 0
0.42 0.18 0
0.44 0.18 0
0.46 0.18 0
0.48 0.18 0
0.5 0.18 0
0.52 0.18 0
0.54 0.18 0
0.56 0.18 0
0.58 0.18 0
0.6 0.18 0
0.62 0.18 0
0.64 0.18 0
0.66 0.18 0
0.68 0.18 0
0.7 0.18 0
0.72 0.18 0
0.74 0.18 0
0.76 0.18 0
0.78 0.18 0
0.8 0.18 0
0.82 0.18 0
0.84 0.18 0
0.86 0.18 0
0.88 0.18 0
0.9 0.18 0
0.92 0.18 0
0.94 0.18 0
0.96 0.18 0
0.98 0.18 0
1 0.18 0
0 0.2 0
0.02 0.2 0
0.04 0.2 0
0.06 0.2 0
0.08 0.2 0
0.1 0.2 0
0.12 0.2 0
0.14 0.2 0
0.16 0.2 0
0.18 0.2 0
0.2 0.2 0
0.22 0.2 0
0.24 0.2 0
0.26 0.2 0
0.28 0.2 0
0.3 0.2 0
0.32 0.2 0
0.34 0.2 0
0.36 0.2 0
0.38 0.2 0
0.4 0.2 0
0.42 0.2 0
0.44 0.2 0
0.46 0.2 0
0.48 0.2 0
0.5 0.2 0
0.52 0.2 0
0.54 0.2 0
0.56 0.2 0
0.58 0.2 0
0.6 0.2 0
0.62 0.2 0
0.64 0.2 0
0.66 0.2 0
0.68 0.2 0
0.7 0.2 0
0.72 0.2 0
0.74 0.2 0
0.76 0.2 0
0.78 0.2 0
0.8 0.2 0
0.82 0.2 0
0.84 0.2 0
0.86 0.2 0
0.88 0.2 0
0.9 0.2 0
0.92 0.2 0
0.94 0.2 0
0.96 0.2 0
0.98 0.2 0
1 0.2 0
0 0.22 0
0.02 0.22 0
0.04 0.22 0
0.06 0.22 0
0.08 0.22 0
0.1 0.22 0
0.12 0.22 0
0.14 0.22 0
0.16 0.22 0
0.18 0.22 0
0.2 0.22 0
0.22 0.22 0
0.24 0.22 0
0.26 0.22 0
0.28 0.22 0
0.3 0.22 0
0.32 0.22 0
0.34 0.22 0
0.36 0.22 0
0.38 0.22 0
0.4 0.22 0
0.42 0.22 0
0.44 0.22 0
0.46 0.22 0
0.48 0.22 0
0.5 0.22 0
0.52 0.22 0
0.54 0.22 0
0.56 0.22 0
0.58 0.22 0
0.6 0.22 0
0.62 0.22 0
0.64 0.22 0
0.66 0.22 0
0.68 0.22 0
0.7 0.22 0
0.72 0.22 0
0.74 0.22 0
0.76 0.22 0
0.78 0.22 0
0.8 0.22 0
0.82 0.22 0
0.84 0.22 0
0.86 0.22 0
0.88 0.22 0
0.9 0.22 0
0.92 0.22 0
0.94 0.22 0
0.96 0.22 0
0.98 0.22 0
1 0.22 0
0 0.24 0
0.02 0.24 0
0.04 0.24 0
0.06 0.24 0
0.08 0.24 0
0.1 0.24 0
0.12 0.24 0
0.14 0.24 0
0.16 0.24 0
0.18 0.24 0
0.2 0.24 0
0.22 0.24 0
0.24 0.24 0
0.26 0.24 0
0.28 0.24 0
0.3 0.24 0
0.32 0.24 0
0.34 0.24 0
0.36 0.24 0
0.38 0.24 0
0.4 0.24 0
0.42 0.24 0
0.44 0.24 0
0.46 0.24 0
0.48 0.24 0
0.5 0.24 0
0.52 0.24 0
0.54 0.24 0
0.56 0.24 0
0.58 0.24 0
0.6 0.24 0
0.62 0.24 0
0.64 0.24 0
0.66 0.24 0
0.68 0.24 0
0.7 0.24 0
0.72 0.24 0
0.74 0.24 0
0.76 0.24 0
0.78 0.24 0
0.8 0.24 0
0.82 0.24 0
0.84 0.24 0
0.86 0.24 0
0.88 0.24 0
0.9 0.24 0
0.92 0.24 0
0.94 0.24 0
0.96 0.24 0
0.98 0.24 0
1 0.24 0
0 0.26 0
0.02 0.26 0
0.04 0.26 0
0.06 0.26 0
0.08 0.26 0
0.1 0.26 0
0.12 0.26 0
0.14 0.26 0
0.16 0.26 0
0.18 0.26 0
0.2 0.26 0
0.22 0.26 0
0.24 0.26 0
0.26 0.26 0
0.28 0.26 0
0.3 0.26 0
0.32 0.26 0
0.34 0.26 0
0.36 0.26 0
0.38 0.26 0
0.4 0.26 0
0.42 0.26 0
0.44 0.26 0
0.46 0.26 0
0.48 0.26 0
0.5 0.26 0
0.52 0.26 0
0.54 0.26 0
0.56 0.26 0
0.58 0.26 0
0.6 0.26 0
0.62 0.26 0
0.64 0.26 0
0.66 0.26 0
0.68 0.26 0
0.7 0.26 0
0.72 0.26 0
0.74 0.26 0
0.76 0.26 0
0.78 0.26 0
0.8 0.26 0
0.82 0.26 0
0.84 0.26 0
0.86 0.26 0
0.88 0.26 0
0.9 0.26 0
0.92 0.26 0
0.94 0.26 0
0.96 0.26 0
0.98 0.26 0
1 0.26 0
0 0.28 0
0.02 0.28 0
0.04 0.28 0
0.06 0.28 0
0.08 0.28 0
0.1 0.28 0
0.12 0.28 0
0.14 0.28 0
0.16 0.28 0
0.18 0.28 0
0.2 0.28 0
0.22 0.28 0
0.24 0.28 0
0.26 0.28 0
0.28 0.28 0
0.3 0.28 0
0.32 0.28 0
0.34 0.28 0
0.36 0.28 0
0.38 0.28 0
0.4 0.28 0
0.42 0.28 0
0.44 0.28 0
0.46 0.28 0
0.48 0.28 0
0.5 0.28 0
0.52 0.28 0
0.54 0.28 0
0.56 0.28 0
0.58 0.28 0
0.6 0.28 0
0.62 0.28 0
0.64 0.28 0
0.66 0.28 0
0.68 0.28 0
0.7 0.28 0
0.72 0.28 0
0.74 0.28 0
0.76 0.28 0
0.78 0.28 0
0.8 0.28 0
0.82 0.28 0
0.84 0.28 0
0.86 0.28 0
0.88 0.28 0
0.9 0.28 0
0.92 0.28 0
0.94 0.28 0
0.96 0.28 0
0.98 0.28 0
1 0.28 0
0 0.3 0
0.02 0.3 0
0.04 0.3 0
0.06 0.3 0
0.08 0.3 0
0.1 0.3 0
0.12 0.3 0
0.14 0.3 0
0.16 0.3 0
0.18 0.3 0
0.2 0.3 0
0.22 0.3 0
0.24 0.3 0
0.26 0.3 0
0.28 0.3 0
0.3 0.3 0
0.32 0.3 0
0.34 0.3 0
0.36 0.3 0
0.38 0.3 0
0.4 0.3 0
0.42 0.3 0
0.44 0.3 0
0.46 0.3 0
0.48 0.3 0
0.5 0.3 0
0.52 0.3 0
0.54 0.3 0
0.56 0.3 0
0.58 0.3 0
0.6 0.3 0
0.62 0.3 0
0.64 0.3 0
0.66 0.3 0
0.68 0.3 0
0.7 0.3 0
0.72 0.3 0
0.74 0.3 0
0.76 0.3 0
0.78 0.3 0
0.8 0.3 0
0.82 0.3 0
0.84 0.3 0
0.86 0.3 0
0.88 0.3 0
0.9 0.3 0
0.92 0.3 0
0.94 0.3 0
0.96 0.3 0
0.98 0.3 0
1 0.3 0
0 0.32 0
0.02 0.32 0
0.04 0.32 0
0.06 0.32 0
0.08 0.32 0
0.1 0.32 0
0.12 0.32 0
0.14 0.32 0
0.16 0.32 0
0.18 0.32 0
0.2 0.32 0
0.22 0.32 0
0.24 0.32 0
0.26 0.32 0
0.28 0.32 0
0.3 0.32 0
0.32 0.32 0
0.34 0.32 0
0.36 0.32 0
0.38 0.32 0
0.4 0.32 0
0.42 0.32 0
0.44 0.32 0
0.46 0.32 0
0.48 0.32 0
0.5 0.32 0
0.52 0.32 0
0.54 0.32 0
0.56 0.32 0
0.58 0.32 0
0.6 0.32 0
0.62 0.32 0
0.64 0.32 0
0.66 0.32 0
0.68 0.32 0
0.7 0.32 0
0.72 0.32 0
0.74 0.32 0
0.76 0.32 0
0.78 0.32 0
0.8 0.32 0
0.82 0.32 0
0.84 0.32 0
0.86 0.32 0
0.88 0.32 0
0.9 0.32 0
0.92 0.32 0
0.94 0.32 0
0.96 0.32 0
0.98 0.32 0
1 0.32 0
0 0.34 0
0.02 0.34 0
0.04 0.34 0
0.06 0.34 0
0.08 0.34 0
[...]
POINT_DATA 2601
SCALARS pressure float 1
LOOKUP_TABLE default
0.0151874
0.01516
0.0150328
0.0147857
0.0144693
0.0141297
0.0137994
0.013498
0.0132386
0.0130305
0.012881
0.0127961
0.0127731
0.012808
0.0129079
0.0130766
0.0133109
0.01361
0.013973
0.0143981
0.0148828
0.0154233
0.0160145
0.0166499
0.0173211
0.0180184
0.0187318
0.0194479
0.0201507
0.0208261
0.0214593
0.0220355
0.0225406
0.0229622
0.0232896
0.0235123
0.0236251
0.023636
0.0235511
0.023367
0.023092
0.0227446
0.0223438
0.0219097
0.0214667
0.0210441
0.0206725
0.0203834
0.0202083
0.0201641
0.0201753
0.0152205
0.0151926
0.0150737
0.0148513
0.0145693
0.0142657
0.0139685
0.0136962
0.0134609
0.0132719
0.0131363
0.0130601
0.0130414
0.0130774
0.0131747
0.0133363
0.0135597
0.0138443
0.0141892
0.0145928
0.0150525
0.0155648
0.0161246
0.016726
0.0173605
0.0180193
0.0186933
0.0193691
0.0200321
0.020669
0.0212661
0.0218094
0.0222858
0.0226838
0.0229936
0.023206
0.0233157
0.0233298
0.0232545
0.0230873
0.0228362
0.0225189
0.0221528
0.0217568
0.0213535
0.0209696
0.020632
0.020368
0.0202048
0.0201621
0.0201725
0.0153606
0.015322
0.0152004
0.0150076
0.0147737
0.0145229
0.0142765
0.0140499
0.0138537
0.0136961
0.0135837
0.013522
0.0135102
0.0135473
0.0136388
0.013787
0.0139901
0.0142479
0.0145599
0.0149245
0.0153395
0.0158016
0.0163064
0.016848
0.0174189
0.0180118
0.0186183
0.0192261
0.0198226
0.0203955
0.0209325
0.0214214
0.0218504
0.0222095
0.0224903
0.0226852
0.0227891
0.0228074
0.0227467
0.0226056
0.0223917
0.0221208
0.0218083
0.0214705
0.0211277
0.0208027
0.0205165
0.020289
0.0201415
0.0200974
0.0201041
0.0156255
0.0155586
0.0154
0.0152031
0.0149842
0.0147567
0.014537
0.0143372
0.0141654
0.0140283
0.0139314
0.0138792
0.0138713
0.0139073
0.0139921
0.0141274
0.0143123
0.0145468
0.0148306
0.0151626
0.0155408
0.0159625
0.0164231
0.0169176
0.0174406
0.0179853
0.0185423
0.0191013
0.0196511
0.0201799
0.0206761
0.0211282
0.0215257
0.0218589
0.0221202
0.022303
0.0224018
0.0224213
0.0223682
0.0222416
0.0220483
0.021803
0.0215198
0.0212132
0.0209013
0.0206047
0.0203408
0.0201252
0.0199763
0.0199164
0.0199118
0.0159674
0.0158607
0.0156435
0.0154223
0.0151989
0.014978
0.0147713
0.0145869
0.0144305
0.0143067
0.0142198
0.0141733
0.0141665
0.0141993
0.0142759
0.014398
0.014565
0.0147772
0.0150347
0.0153364
0.0156808
0.0160657
0.0164882
0.0169442
0.0174291
0.017935
0.0184527
0.018974
0.0194882
0.0199842
0.0204511
0.0208775
0.0212531
0.0215686
0.0218167
0.0219909
0.0220858
0.0221054
0.0220561
0.0219372
0.021755
0.0215233
0.021255
0.0209638
0.0206656
0.0203781
0.0201172
0.0198966
0.0197307
0.0196369
0.0196106
0.0163427
0.0161913
0.0159063
0.0156504
0.0154104
0.0151846
0.0149808
0.0148031
0.0146549
0.0145386
0.0144568
0.0144122
0.0144039
0.014431
0.0144974
0.014605
0.0147529
0.0149418
0.0151725
0.0154448
0.0157581
0.0161106
0.0165008
0.0169252
0.0173775
0.0178505
0.0183371
0.0188295
0.019317
0.0197893
0.0202359
0.0206456
0.0210077
0.0213128
0.0215535
0.0217231
0.0218159
0.0218354
0.0217878
0.021672
0.0214939
0.0212667
0.0210024
0.0207141
0.0204161
0.0201243
0.0198531
0.0196153
0.0194207
0.01928
0.019225
0.0167179
0.0165206
0.0161638
0.0158668
0.0156023
0.0153635
0.0151548
0.0149767
0.0148304
0.0147161
0.0146345
0.0145873
0.0145736
0.0145918
0.014645
0.0147356
0.0148634
0.0150296
0.015235
0.0154806
0.0157668
0.0160921
0.0164542
0.0168496
0.0172736
0.0177203
0.0181835
0.0186552
0.0191254
0.0195832
0.0200182
0.0204194
0.020776
0.0210783
0.0213179
0.021488
0.0215818
0.0216023
0.0215555
0.02144
0.021261
0.0210311
0.020762
0.0204659
0.0201567
0.0198486
0.0195554
0.0192898
0.0190568
0.0188609
0.0187737
0.0170669
0.0168242
0.0163948
0.0160532
0.0157596
0.0155018
0.0152818
0.0150972
0.0149469
0.0148294
0.0147434
0.0146897
0.0146674
0.0146746
0.0147131
0.0147855
0.0148932
0.0150378
0.01522
0.0154406
0.0157002
0.0159985
0.0163337
0.0167033
0.0171042
0.0175313
0.0179778
0.0184362
0.018897
0.019349
0.0197812
0.0201825
0.0205416
0.0208481
0.0210934
0.0212697
0.021369
0.021393
0.0213481
0.0212319
0.0210488
0.0208113
0.0205305
0.0202188
0.0198891
0.0195548
0.01923
0.0189275
0.0186483
0.0183916
0.0182699
0.0173684
0.0170814
0.0165799
0.016191
0.0158645
0.0155843
0.0153494
0.0151546
0.0149965
0.0148718
0.0147783
0.0147151
0.0146818
0.0146765
0.0146991
0.0147525
0.0148387
0.014959
0.0151153
0.0153092
0.0155416
0.0158134
0.0161242
0.0164725
0.0168553
0.0172678
0.0177037
0.0181556
0.0186144
0.0190688
0.019507
0.0199173
0.0202877
0.0206069
0.0208653
0.0210543
0.0211643
0.0211958
0.0211553
0.0210395
0.0208513
0.0206031
0.0203059
0.0199719
0.0196143
0.0192461
0.0188813
0.0185341
0.0182024
0.0178804
0.0177225
0.0176014
0.017271
0.0166987
0.0162636
0.0159045
0.0156014
0.0153505
0.0151435
0.0149751
0.0148407
0.0147364
0.01466
0.0146109
0.0145883
0.0145913
0.0146217
0.0146825
0.0147757
0.014904
0.0150701
0.0152761
0.0155234
0.0158122
0.0161419
0.0165099
0.0169121
0.0173428
0.0177944
0.0182581
0.0187227
0.0191755
0.0196039
0.019995
0.0203363
0.0206167
0.0208265
0.0209545
0.0209991
0.0209668
0.0208539
0.0206618
0.0204018
0.0200852
0.0197243
0.019333
0.0189244
0.0185124
0.0181136
0.0177238
0.0173326
0.0171371
0.0177444
0.0173745
0.0167379
0.0162609
0.015871
0.0155438
0.0152736
0.0150509
0.0148684
0.01472
0.0146007
0.0145072
0.0144379
0.0143929
0.0143724
0.014377
0.0144095
0.0144739
0.0145735
0.0147114
0.0148905
0.0151133
0.0153808
0.0156932
0.0160489
0.0164444
0.0168744
0.0173313
0.0178065
0.0182887
0.0187648
0.0192206
0.0196424
0.0200159
0.0203286
0.0205691
0.0207248
0.0207909
0.0207722
0.0206667
0.0204736
0.0202025
0.0198654
0.0194749
0.0190454
0.0185907
0.0181255
0.0176686
0.0172155
0.0167511
0.0165162
0.0177891
0.0173839
0.0166879
0.0161687
0.0157463
0.0153929
0.0151014
0.0148601
0.0146604
0.0144944
0.0143565
0.0142426
0.0141504
0.0140796
0.0140313
0.0140076
0.0140102
0.0140426
0.0141103
0.0142177
0.0143681
0.0145651
0.0148108
0.0151064
0.0154511
0.0158423
0.0162751
0.0167424
0.0172351
0.0177423
0.0182502
0.0187433
0.0192063
0.0196236
0.0199802
0.020263
0.0204579
0.0205561
0.0205594
0.0204683
0.0202797
0.0200005
0.0196436
0.0192221
0.0187509
0.0182457
0.017722
0.0172011
0.0166787
0.0161362
0.0158594
0.0177291
0.0172875
0.0165305
0.0159684
0.0155133
0.0151339
0.0148209
0.0145602
0.0143413
0.0141553
0.0139957
0.0138578
0.0137392
0.0136389
0.0135583
0.0135004
0.013469
0.0134669
0.0134989
0.0135717
0.0136905
0.0138593
0.0140815
0.0143594
0.0146932
0.0150813
0.0155194
0.016001
0.0165169
0.0170558
0.017604
0.0181447
0.0186606
0.0191341
0.019548
0.0198867
0.0201348
0.0202779
0.0203141
0.0202472
0.0200714
0.0197896
0.0194157
0.0189635
0.0184491
0.0178897
0.0173027
0.0167119
0.0161141
0.015487
0.0151651
0.0175393
0.0170626
0.0162479
0.0156467
0.0151614
0.014757
0.014422
0.0141405
0.0139003
0.0136916
0.0135069
0.0133411
0.0131916
0.0130577
0.0129405
0.0128432
0.0127709
0.0127292
0.0127225
0.0127564
0.0128385
0.0129752
0.0131707
0.0134284
0.0137499
0.0141345
0.0145792
0.0150779
0.0156215
0.0161986
0.0167952
0.017394
0.0179751
0.0185188
0.0190052
0.0194156
0.0197326
0.0199372
0.0200218
0.0199905
0.019838
0.0195627
0.0191771
0.0186968
0.0181388
0.0175228
0.016868
0.0162015
0.0155215
0.0148021
0.0144311
0.0172012
0.0166942
0.0158291
0.0151926
0.0146792
0.0142504
0.0138932
0.0135894
0.0133259
0.0130915
0.0128782
0.0126804
0.0124955
0.0123228
0.012164
0.0120224
0.0119033
0.0118139
0.011762
0.0117529
0.0117931
0.0118915
0.0120552
0.0122885
0.0125944
0.0129737
0.0134243
0.0139413
0.0145162
0.0151372
0.01579
0.0164569
0.0171163
0.0177453
0.0183211
0.0188215
0.0192255
0.019512
0.0196647
0.0196832
0.0195674
0.0193114
0.0189226
0.0184189
0.017819
0.017145
0.0164186
0.0156706
0.014901
0.0140801
0.0136548
0.0167076
0.0161738
0.0152638
0.0145952
0.0140556
0.0136033
0.0132235
0.0128964
0.0126074
0.0123444
0.0120988
0.0118647
0.0116394
0.0114225
0.011216
0.011024
0.0108522
0.0107079
0.0106009
0.010541
0.0105341
0.0105874
0.0107116
0.0109142
0.0111992
0.011569
0.0120231
0.0125578
0.0131656
0.0138351
0.0145511
0.0152957
0.0160465
0.0167771
0.017461
0.018072
0.0185848
0.0189754
0.0192195
0.0193087
0.0192464
0.0190252
0.0186458
0.0181264
0.0174884
0.0167564
0.0159552
0.0151203
0.0142531
0.01332
0.0128345
0.0160486
0.0154914
0.0145419
0.0138447
0.0132809
0.012806
0.0124034
0.0120517
0.011735
0.0114404
0.0111587
0.0108838
0.0106129
0.0103458
0.0100851
0.00983542
0.00960344
0.00939717
0.0092263
0.0091035
0.00903996
0.00904172
0.00911778
0.00928035
0.00953678
0.00989058
0.0103433
0.0108929
0.0115331
0.0122536
0.0130389
0.0138704
0.014725
0.0155738
0.0163859
0.0171304
0.017777
0.0182968
0.0186605
0.0188481
0.0188588
0.0186911
0.018339
0.0178155
0.0171459
0.0163579
0.0154797
0.0145523
0.013579
0.0125217
0.0119688
0.0152151
0.014638
0.0136549
0.0129326
0.0123468
0.0118502
0.0114246
0.011047
0.0107005
0.0103712
0.0100493
0.00972887
0.00940695
0.00908348
0.00876131
0.00844598
0.0081451
0.00786783
0.00762461
0.007428
0.00729345
0.00723265
0.00725239
0.00736419
0.00758095
0.00790959
0.00835328
0.00891211
0.00958187
0.0103534
0.0112121
0.0121383
0.0131081
0.0140916
0.0150531
0.015956
0.0167642
0.0174425
0.0179572
0.0182758
0.0183874
0.0182959
0.0179926
0.0174817
0.0167903
0.0159506
0.0149946
0.0139699
0.0128815
0.0116864
0.0110582
0.0141995
0.0136063
0.0125957
0.0118521
0.0112465
0.0107291
0.0102804
0.00987576
0.00949704
0.00912967
0.00876373
0.00839298
0.00801437
0.00762801
0.007237
0.00684753
0.00646826
0.0061096
0.00578337
0.00550267
0.00528339
0.00514346
0.00509467
0.00514497
0.00530888
0.00559979
0.00602377
0.00658316
0.00727629
0.00809605
0.00902925
0.0100561
0.0111515
0.0122847
0.0134168
0.0145046
0.0155049
0.0163751
0.0170747
0.017563
0.0178128
0.0178238
0.0175944
0.0171197
0.0164209
0.0155367
0.014504
0.0133775
0.0121651
0.0108175
0.0101051
0.0129959
0.0123907
0.0113589
0.0105979
0.00997476
0.00943776
0.00896576
0.00853279
0.00811963
0.0077113
0.00729761
0.0068717
0.00643044
0.0059744
0.00550709
0.00503487
0.00456732
0.00411619
0.00369479
0.00331774
0.00300109
0.00276466
0.00262927
0.00260542
0.0027024
0.00293937
0.00332965
0.00387754
0.0045844
0.005446
0.00645129
0.0075817
0.00881103
0.0101071
0.0114297
0.0127293
0.013954
0.0150529
0.0159763
0.0166765
0.0171087
0.0172586
0.0171328
0.0167223
0.016037
0.0151195
0.0140137
0.0127824
0.0114367
0.00992102
0.00911473
0.0116008
0.0109876
0.00994111
0.00916652
0.00852831
0.0079728
0.00747755
0.00701514
0.00656564
0.00611389
0.00564886
0.00516311
0.0046536
0.00412121
0.00356999
0.00300654
0.00244072
0.00188573
0.00135642
0.000869153
0.000441501
9.3141e-05
-0.000150075
-0.000267812
-0.000251684
-8.53333e-05
0.000252626
0.000773157
0.00148029
0.0023733
0.00344426
0.00467676
0.00604509
0.00751519
0.00904536
0.0105826
0.0120654
0.0134321
0.0146228
0.0155795
0.0162453
0.0165834
0.0165951
0.0162808
0.0156384
0.0147042
0.0135323
0.012195
0.0107069
0.00900589
0.00809504
0.0100123
0.0093953
0.00834067
0.00755649
0.00690564
0.00633292
0.00581457
0.00532205
0.00483503
0.00433773
0.00381814
0.00326848
0.00268578
0.00207096
0.00142847
0.000765461
9.19459e-05
-0.000578115
-0.0012282
-0.00184014
-0.00239414
-0.00286918
-0.0032399
-0.00347634
-0.0035601
-0.00348089
-0.00321573
-0.0027427
-0.00205286
-0.00114329
-1.77153e-05
0.00131069
0.00281822
0.00446989
0.00622201
0.00801949
0.00979283
0.0114682
0.012973
0.0142363
0.0151906
0.0157741
0.0159695
0.0157891
0.0152243
0.0142977
0.013071
0.0116291
0.0099911
0.00808643
0.00705882
0.00823123
0.00761434
0.00655798
0.00576813
0.00510719
0.0045188
0.00397784
0.00345514
0.00293018
0.0023859
0.00180934
0.00119268
0.000532794
-0.000169526
-0.000909743
-0.00167999
-0.00246988
-0.00326548
-0.0040487
-0.00479944
-0.00549576
-0.0061141
-0.00662896
-0.00700788
-0.0072179
-0.00724415
-0.00707217
-0.00667106
-0.00602006
-0.00511306
-0.00394888
-0.00253604
-0.000894941
0.000940842
0.00292504
0.00500072
0.00709462
0.00911916
0.0109865
0.0126111
0.0139106
0.0148047
0.0152463
0.015242
0.0147939
0.0139093
0.0126446
0.0111026
0.00930898
0.00718283
0.00602593
0.00626026
0.00564733
0.00459532
0.00380363
0.00313526
0.00253299
0.00197063
0.00141864
0.000856007
0.00026431
-0.000370188
-0.00105554
-0.00179524
-0.00258871
-0.00343152
-0.00431544
-0.00522945
-0.00615952
-0.00708696
-0.00798967
-0.00884353
-0.00962221
-0.010298
-0.0108391
-0.0112035
-0.0113617
-0.0113023
-0.0109966
-0.0104109
-0.00953004
-0.00834819
-0.00686803
-0.00510509
-0.00308967
-0.000868527
0.00149895
0.00393698
0.0063478
0.00862643
0.0106694
0.012376
0.0136506
0.0144096
0.0146363
0.0143505
0.0135487
0.0122713
0.0106381
0.00868544
0.00632115
0.00502278
0.00410444
0.00349893
0.00245683
0.00166691
0.000993898
0.000379893
-0.000201829
-0.000780988
-0.00137974
-0.00201782
-0.00270952
-0.00346343
-0.00428364
-0.00516997
-0.00611821
-0.00712024
-0.00816431
-0.00923601
-0.0103168
-0.0113829
-0.0124079
-0.0133629
-0.0142168
-0.0149366
-0.0154808
-0.0158017
-0.0158761
-0.0156887
-0.0151976
-0.0143703
-0.0131961
-0.0116712
-0.0098045
-0.00762131
-0.00516549
-0.00249944
0.000299028
0.0031282
0.00586441
0.00838293
0.0105627
0.0122872
0.0134433
0.0139765
0.0139018
0.0132278
0.0119777
0.0102688
0.00815467
0.00553524
0.00408294
0.00177082
0.00117564
0.000148201
-0.000636592
-0.00131132
-0.00193422
-0.00253226
-0.00313524
-0.00376686
-0.00444818
-0.0051941
-0.0060141
-0.00691306
-0.00789145
-0.00894546
-0.0100672
-0.0112448
-0.0124631
-0.0137034
-0.0149417
-0.016149
-0.017294
-0.0183422
-0.0192574
-0.019999
-0.020511
-0.0207506
-0.0207027
-0.0203315
-0.0195893
-0.0184519
-0.0169096
-0.0149633
-0.0126314
-0.00995241
-0.00698833
-0.00381946
-0.000549991
0.00268342
0.00573282
0.00845234
0.0106999
0.0123403
0.0132643
0.0134606
0.0129742
0.0118035
0.0100432
0.00776928
0.00487382
0.0032523
-0.000731728
-0.00131441
-0.00232355
-0.00310031
-0.0037737
-0.00440178
-0.00501168
-0.00563353
-0.00629263
-0.00701145
-0.00780587
-0.00868655
-0.00965944
-0.0107259
-0.0118827
-0.0131227
-0.0144342
-0.0158012
-0.0172046
-0.0186206
-0.0200183
-0.0213635
-0.0226191
-0.0237445
-0.0246971
-0.0254234
-0.0258596
-0.0259734
-0.0257456
-0.0251208
-0.0240524
-0.0225237
-0.0205273
-0.0180723
-0.0151899
-0.0119373
-0.00839754
-0.00467629
-0.000914223
0.00271588
0.00603939
0.00888704
0.0110947
0.0125031
0.0130609
0.0128224
0.0117761
0.0100005
0.00758216
0.00439935
0.00259388
-0.0033929
-0.00396193
-0.00495059
-0.00571698
-0.00638579
-0.00701436
-0.00762988
-0.00826345
-0.00894198
-0.00968947
-0.0105233
-0.0114557
-0.0124942
-0.0136415
-0.0148952
-0.0162487
-0.0176906
-0.0192048
-0.0207713
-0.0223663
-0.0239585
-0.0255108
-0.026983
-0.0283308
-0.0295075
-0.0304613
-0.0311198
-0.0314261
-0.0313609
-0.0308781
-0.0299122
-0.028429
-0.0264147
-0.023868
-0.0208099
-0.0172892
-0.0133872
-0.00921095
-0.00490285
-0.000652556
0.003335
0.00685754
0.00971413
0.0117097
0.012736
0.012805
0.0119314
0.0101863
0.00764246
0.00417769
0.00218629
-0.00620142
-0.00675693
-0.00772488
-0.00847924
-0.00913986
-0.00976299
-0.010376
-0.0110114
-0.0116979
-0.0124615
-0.0133218
-0.0142934
-0.0153855
-0.0166021
-0.0179421
-0.0193993
-0.0209632
-0.022618
-0.0243431
-0.0261141
-0.0279001
-0.0296617
-0.0313554
-0.0329337
-0.0343451
-0.0355354
-0.0364361
-0.0369635
-0.037079
-0.0367604
-0.0359293
-0.0345244
-0.0325255
-0.0299202
-0.0267172
-0.0229551
-0.0187078
-0.0140846
-0.00922708
-0.00432864
0.000374403
0.00464042
0.00822849
0.0109113
0.0125086
0.0129701
0.012344
0.0106849
0.00803235
0.00427575
0.00209165
-0.0091457
-0.0096895
-0.0106389
-0.0113805
-0.0120288
-0.0126389
-0.013239
-0.0138629
-0.0145418
-0.0153048
-0.0161745
-0.017168
-0.0182961
-0.0195644
-0.0209739
-0.0225203
-0.0241936
-0.0259785
-0.0278539
-0.0297941
-0.0317681
-0.0337359
-0.0356505
-0.0374609
-0.0391114
-0.0405437
-0.0416912
-0.0424605
-0.0427864
-0.0426477
-0.0419749
-0.0406842
-0.0387355
-0.0361071
-0.0327949
-0.0288247
-0.0242594
-0.019205
-0.013802
-0.00824302
-0.00278703
0.00228185
0.00668157
0.0101529
0.0124344
0.0133997
0.0130992
0.0115848
0.00886134
0.00479263
0.00239141
-0.0122147
-0.0127506
-0.0136867
-0.0144158
-0.015047
-0.0156345
-0.0162078
-0.0168029
-0.0174539
-0.0181946
-0.0190512
-0.0200427
-0.0211832
-0.0224816
-0.0239412
-0.0255589
-0.0273256
-0.0292263
-0.0312396
-0.0333383
-0.0354906
-0.0376568
-0.0397863
-0.0418247
-0.0437131
-0.0453873
-0.0467793
-0.0478001
-0.0483558
-0.0484056
-0.0479055
-0.0467568
-0.0448891
-0.0422733
-0.0388916
-0.0347542
-0.0299084
-0.0244485
-0.0185158
-0.0123
-0.0060675
-0.000145632
0.00514462
0.00950881
0.0125992
0.0141892
0.014294
0.0129907
0.0102519
0.00587503
0.00324341
-0.0153987
-0.0159334
-0.0168652
-0.0175831
-0.0181916
-0.0187442
-0.0192727
-0.0198163
-0.020414
-0.0211048
-0.0219185
-0.0228786
-0.0240043
-0.0253078
-0.026794
-0.0284612
-0.0303012
-0.0322992
-0.0344338
-0.0366765
-0.0389939
-0.0413459
-0.0436801
-0.0459381
-0.0480573
-0.0499689
-0.0516012
-0.052869
-0.0536588
-0.0539077
-0.0535879
-0.0525939
-0.0508284
-0.0482513
-0.0448312
-0.0405617
-0.0354732
-0.0296438
-0.0232084
-0.016351
-0.00933757
-0.00252512
0.00373287
0.00908216
0.013099
0.015439
0.0160461
0.0150424
0.0123517
0.00768502
0.00482079
-0.0186912
-0.0192345
-0.0201756
-0.0208848
-0.0214639
-0.0219656
-0.0224255
-0.0228887
-0.0234011
-0.0240068
-0.0247417
-0.025637
-0.0267162
-0.0279942
-0.0294786
-0.0311693
-0.0330588
-0.0351326
-0.0373687
-0.0397378
-0.0422039
-0.0447255
-0.04725
-0.0497145
-0.0520521
-0.0541905
-0.056053
-0.0575546
-0.0585773
-0.0590327
-0.0588881
-0.0580502
-0.0564007
-0.0538772
-0.0504392
-0.046063
-0.0407618
-0.0345958
-0.0276849
-0.0202098
-0.012431
-0.00469755
0.00260818
0.00901908
0.0140549
0.0172847
0.018525
0.0179057
0.015327
0.0104008
0.0073
-0.0220901
-0.0226562
-0.0236259
-0.0243299
-0.0248699
-0.0252998
-0.0256608
-0.0260074
-0.0263933
-0.0268711
-0.0274862
-0.028277
-0.0292719
-0.0304896
-0.0319404
-0.0336257
-0.0355386
-0.0376644
-0.0399803
-0.0424556
-0.0450516
-0.0477249
-0.0504221
-0.0530759
-0.0556154
-0.0579648
-0.0600418
-0.061759
-0.0630018
-0.0636575
-0.0636768
-0.0629878
-0.061455
-0.0589889
-0.0555422
-0.0510752
-0.0455824
-0.0391056
-0.0317461
-0.0236785
-0.0151402
-0.00644035
0.00196159
0.00948979
0.0156387
0.0198993
0.0219273
0.0217804
0.0193849
0.0142418
0.0109026
-0.0256008
-0.0262093
-0.0272338
-0.0279363
-0.028424
-0.0287548
-0.0289778
-0.0291602
-0.0293688
-0.0296686
-0.0301152
-0.0307552
-0.0316234
-0.0327425
-0.0341252
-0.0357743
-0.0376832
-0.0398363
-0.0422091
-0.0447694
-0.0474757
-0.0502814
-0.0531312
-0.0559548
-0.0586767
-0.0612169
-0.0634882
-0.0653995
-0.0668397
-0.0676752
-0.0678419
-0.0672861
-0.0658555
-0.0634359
-0.0599751
-0.0554189
-0.0497436
-0.0429714
-0.0351792
-0.0265177
-0.017184
-0.00749668
0.00198737
0.0106867
0.0180634
0.0234924
0.0264599
0.0269028
0.0247863
0.0194727
0.0158959
-0.0292392
-0.029917
-0.031031
-0.031735
-0.0321481
-0.0323415
-0.0323786
-0.0323361
-0.0323048
-0.0323701
-0.0325918
-0.0330275
-0.0337224
-0.0347019
-0.0359809
-0.0375628
-0.0394404
-0.0415964
-0.0440043
-0.0466288
-0.0494257
-0.0523442
-0.055326
-0.0582985
-0.0611808
-0.0638886
-0.0663299
-0.0684093
-0.0700176
-0.0710048
-0.0712943
-0.0708455
-0.0694901
-0.067093
-0.0635974
-0.0589346
-0.0530622
-0.0459781
-0.0377243
-0.028424
-0.0182856
-0.0076671
0.00290445
0.0128627
0.0215738
0.0283165
0.0323818
0.0335551
0.031834
0.0264084
0.0225994
-0.0330384
-0.0338216
-0.035069
-0.0357697
-0.0360774
-0.0360885
-0.0358743
-0.0355285
-0.0351762
-0.0349324
-0.0348723
-0.0350529
-0.0355231
-0.0363193
-0.0374591
-0.0389436
-0.0407642
-0.0429008
-0.0453234
-0.0479933
-0.0508623
-0.053875
-0.0569694
-0.0600699
-0.0630899
-0.0659403
-0.0685251
-0.0707432
-0.0724845
-0.0735901
-0.0739728
-0.0735927
-0.0722711
-0.0698569
-0.0662827
-0.0614618
-0.055333
-0.0478782
-0.0391281
-0.0291893
-0.0182917
-0.00675567
0.00498394
0.0162977
0.026453
0.0346542
0.0400071
0.0421016
0.040893
0.035413
0.0313891
-0.0370568
-0.0379931
-0.0394255
-0.0401118
-0.0402753
-0.0400357
-0.0394738
-0.038729
-0.0379662
-0.0373227
-0.0369044
-0.0367781
-0.0369807
-0.0375495
-0.0385104
-0.0398648
-0.0416023
-0.043698
-0.0461173
-0.0488162
-0.051742
-0.0548337
-0.0580246
-0.0612351
-0.0643722
-0.0673418
-0.0700433