# vtk DataFile Version 2.0

ASCII
DATASET STRUCTURED_GRID
DIMENSIONS 51 51 1
POINTS 2601 float
0 0 0
0.02 0 0
0.04 0 0
0.06 0 0
0.08 0 0
0.1 0 0
0.12 0 0
0.14 0 0
0.16 0 0
0.18 0 0
0.2 0 0
0.22 0 0
0.24 0 0
0.26 0 0
0.28 0 0
0.3 0 0
0.32 0 0
0.34 0 0
0.36 0 0
0.38 0 0
0.4 0 0
0.42 0 0
0.44 0 0
0.46 0 0
0.48 0 0
0.5 0 0
0.52 0 0
0.54 0 0
0.56 0 0
0.58 0 0
0.6 0 0
0.62 0 0
0.64 0 0
0.66 0 0
0.68 0 0
0.7 0 0
0.72 0 0
0.74 0 0
0.76 0 0
0.78 0 0
0.8 0 0
0.82 0 0
0.84 0 0
0.86 0 0
0.88 0 0
0.9 0 0
0.92 0 0
0.94 0 0
0.96 0 0
0.98 0 0
1 0 0
0 0.02 0
0.02 0.02 0
0.04 0.02 0
0.06 0.02 0
0.08 0.02 0
0.1 0.02 0
0.12 0.02 0
0.14 0.02 0
0.16 0.02 0
0.18 0.02 0
0.2 0.02 0
0.22 0.02 0
0.24 0.02 0
0.26 0.02 0
0.28 0.02 0
0.3 0.02 0
0.32 0.02 0
0.34 0.02 0
0.36 0.02 0
0.38 0.02 0
0.4 0.02 0
0.42 0.02 0
0.44 0.02 0
0.46 0.02 0
0.48 0.02 0
0.5 0.02 0
0.52 0.02 0
0.54 0.02 0
0.56 0.02 0
0.58 0.02 0
0.6 0.02 0
0.62 0.02 0
0.64 0.02 0
0.66 0.02 0
0.68 0.02 0
0.7 0.02 0
0.72 0.02 0
0.74 0.02 0
0.76 0.02 0
0.78 0.02 0
0.8 0.02 0
0.82 0.02 0
0.84 0.02 0
0.86 0.02 0
0.88 0.02 0
0.9 0.02 0
0.92 0.02 0
0.94 0.02 0
0.96 0.02 0
0.98 0.02 0
1 0.02 0
0 0.04 0
0.02 0.04 0
0.04 0.04 0
0.06 0.04 0
0.08 0.04 0
0.1 0.04 0
0.12 0.04 0
0.14 0.04 0
0.16 0.04 0
0.18 0.04 0
0.2 0.04 0
0.22 0.04 0
0.24 0.04 0
0.26 0.04 0
0.28 0.04 0
0.3 0.04 0
0.32 0.04 0
0.34 0.04 0
0.36 0.04 0
0.38 0.04 0
0.4 0.04 0
0.42 0.04 0
0.44 0.04 0
0.46 0.04 0
0.48 0.04 0
0.5 0.04 0
0.52 0.04 0
0.54 0.04 0
0.56 0.04 0
0.58 0.04 0
0.6 0.04 0
0.62 0.04 0
0.64 0.04 0
0.66 0.04 0
0.68 0.04 0
0.7 0.04 0
0.72 0.04 0
0.74 0.04 0
0.76 0.04 0
0.78 0.04 0
0.8 0.04 0
0.82 0.04 0
0.84 0.04 0
0.86 0.04 0
0.88 0.04 0
0.9 0.04 0
0.92 0.04 0
0.94 0.04 0
0.96 0.04 0
0.98 0.04 0
1 0.04 0
0 0.06 0
0.02 0.06 0
0.04 0.06 0
0.06 0.06 0
0.08 0.06 0
0.1 0.06 0
0.12 0.06 0
0.14 0.06 0
0.16 0.06 0
0.18 0.06 0
0.2 0.06 0
0.22 0.06 0
0.24 0.06 0
0.26 0.06 0
0.28 0.06 0
0.3 0.06 0
0.32 0.06 0
0.34 0.06 0
0.36 0.06 0
0.38 0.06 0
0.4 0.06 0
0.42 0.06 0
0.44 0.06 0
0.46 0.06 0
0.48 0.06 0
0.5 0.06 0
0.52 0.06 0
0.54 0.06 0
0.56 0.06 0
0.58 0.06 0
0.6 0.06 0
0.62 0.06 0
0.64 0.06 0
0.66 0.06 0
0.68 0.06 0
0.7 0.06 0
0.72 0.06 0
0.74 0.06 0
0.76 0.06 0
0.78 0.06 0
0.8 0.06 0
0.82 0.06 0
0.84 0.06 0
0.86 0.06 0
0.88 0.06 0
0.9 0.06 0
0.92 0.06 0
0.94 0.06 0
0.96 0.06 0
0.98 0.06 0
1 0.06 0
0 0.08 0
0.02 0.08 0
0.04 0.08 0
0.06 0.08 0
0.08 0.08 0
0.1 0.08 0
0.12 0.08 0
0.14 0.08 0
0.16 0.08 0
0.18 0.08 0
0.2 0.08 0
0.22 0.08 0
0.24 0.08 0
0.26 0.08 0
0.28 0.08 0
0.3 0.08 0
0.32 0.08 0
0.34 0.08 0
0.36 0.08 0
0.38 0.08 0
0.4 0.08 0
0.42 0.08 0
0.44 0.08 0
0.46 0.08 0
0.48 0.08 0
0.5 0.08 0
0.52 0.08 0
0.54 0.08 0
0.56 0.08 0
0.58 0.08 0
0.6 0.08 0
0.62 0.08 0
0.64 0.08 0
0.66 0.08 0
0.68 0.08 0
0.7 0.08 0
0.72 0.08 0
0.74 0.08 0
0.76 0.08 0
0.78 0.08 0
0.8 0.08 0
0.82 0.08 0
0.84 0.08 0
0.86 0.08 0
0.88 0.08 0
0.9 0.08 0
0.92 0.08 0
0.94 0.08 0
0.96 0.08 0
0.98 0.08 0
1 0.08 0
0 0.1 0
0.02 0.1 0
0.04 0.1 0
0.06 0.1 0
0.08 0.1 0
0.1 0.1 0
0.12 0.1 0
0.14 0.1 0
0.16 0.1 0
0.18 0.1 0
0.2 0.1 0
0.22 0.1 0
0.24 0.1 0
0.26 0.1 0
0.28 0.1 0
0.3 0.1 0
0.32 0.1 0
0.34 0.1 0
0.36 0.1 0
0.38 0.1 0
0.4 0.1 0
0.42 0.1 0
0.44 0.1 0
0.46 0.1 0
0.48 0.1 0
0.5 0.1 0
0.52 0.1 0
0.54 0.1 0
0.56 0.1 0
0.58 0.1 0
0.6 0.1 0
0.62 0.1 0
0.64 0.1 0
0.66 0.1 0
0.68 0.1 0
0.7 0.1 0
0.72 0.1 0
0.74 0.1 0
0.76 0.1 0
0.78 0.1 0
0.8 0.1 0
0.82 0.1 0
0.84 0.1 0
0.86 0.1 0
0.88 0.1 0
0.9 0.1 0
0.92 0.1 0
0.94 0.1 0
0.96 0.1 0
0.98 0.1 0
1 0.1 0
0 0.12 0
0.02 0.12 0
0.04 0.12 0
0.06 0.12 0
0.08 0.12 0
0.1 0.12 0
0.12 0.12 0
0.14 0.12 0
0.16 0.12 0
0.18 0.12 0
0.2 0.12 0
0.22 0.12 0
0.24 0.12 0
0.26 0.12 0
0.28 0.12 0
0.3 0.12 0
0.32 0.12 0
0.34 0.12 0
0.36 0.12 0
0.38 0.12 0
0.4 0.12 0
0.42 0.12 0
0.44 0.12 0
0.46 0.12 0
0.48 0.12 0
0.5 0.12 0
0.52 0.12 0
0.54 0.12 0
0.56 0.12 0
0.58 0.12 0
0.6 0.12 0
0.62 0.12 0
0.64 0.12 0
0.66 0.12 0
0.68 0.12 0
0.7 0.12 0
0.72 0.12 0
0.74 0.12 0
0.76 0.12 0
0.78 0.12 0
0.8 0.12 0
0.82 0.12 0
0.84 0.12 0
0.86 0.12 0
0.88 0.12 0
0.9 0.12 0
0.92 0.12 0
0.94 0.12 0
0.96 0.12 0
0.98 0.12 0
1 0.12 0
0 0.14 0
0.02 0.14 0
0.04 0.14 0
0.06 0.14 0
0.08 0.14 0
0.1 0.14 0
0.12 0.14 0
0.14 0.14 0
0.16 0.14 0
0.18 0.14 0
0.2 0.14 0
0.22 0.14 0
0.24 0.14 0
0.26 0.14 0
0.28 0.14 0
0.3 0.14 0
0.32 0.14 0
0.34 0.14 0
0.36 0.14 0
0.38 0.14 0
0.4 0.14 0
0.42 0.14 0
0.44 0.14 0
0.46 0.14 0
0.48 0.14 0
0.5 0.14 0
0.52 0.14 0
0.54 0.14 0
0.56 0.14 0
0.58 0.14 0
0.6 0.14 0
0.62 0.14 0
0.64 0.14 0
0.66 0.14 0
0.68 0.14 0
0.7 0.14 0
0.72 0.14 0
0.74 0.14 0
0.76 0.14 0
0.78 0.14 0
0.8 0.14 0
0.82 0.14 0
0.84 0.14 0
0.86 0.14 0
0.88 0.14 0
0.9 0.14 0
0.92 0.14 0
0.94 0.14 0
0.96 0.14 0
0.98 0.14 0
1 0.14 0
0 0.16 0
0.02 0.16 0
0.04 0.16 0
0.06 0.16 0
0.08 0.16 0
0.1 0.16 0
0.12 0.16 0
0.14 0.16 0
0.16 0.16 0
0.18 0.16 0
0.2 0.16 0
0.22 0.16 0
0.24 0.16 0
0.26 0.16 0
0.28 0.16 0
0.3 0.16 0
0.32 0.16 0
0.34 0.16 0
0.36 0.16 0
0.38 0.16 0
0.4 0.16 0
0.42 0.16 0
0.44 0.16 0
0.46 0.16 0
0.48 0.16 0
0.5 0.16 0
0.52 0.16 0
0.54 0.16 0
0.56 0.16 0
0.58 0.16 0
0.6 0.16 0
0.62 0.16 0
0.64 0.16 0
0.66 0.16 0
0.68 0.16 0
0.7 0.16 0
0.72 0.16 0
0.74 0.16 0
0.76 0.16 0
0.78 0.16 0
0.8 0.16 0
0.82 0.16 0
0.84 0.16 0
0.86 0.16 0
0.88 0.16 0
0.9 0.16 0
0.92 0.16 0
0.94 0.16 0
0.96 0.16 0
0.98 0.16 0
1 0.16 0
0 0.18 0
0.02 0.18 0
0.04 0.18 0
0.06 0.18 0
0.08 0.18 0
0.1 0.18 0
0.12 0.18 0
0.14 0.18 0
0.16 0.18 0
0.18 0.18 0
0.2 0.18 0
0.22 0.18 0
0.24 0.18 0
0.26 0.18 0
0.28 0.18 0
0.3 0.18 0
0.32 0.18 0
0.34 0.18 0
0.36 0.18 0
0.38 0.18 0
0.4 0.18 0
0.42 0.18 0
0.44 0.18 0
0.46 0.18 0
0.48 0.18 0
0.5 0.18 0
0.52 0.18 0
0.54 0.18 0
0.56 0.18 0
0.58 0.18 0
0.6 0.18 0
0.62 0.18 0
0.64 0.18 0
0.66 0.18 0
0.68 0.18 0
0.7 0.18 0
0.72 0.18 0
0.74 0.18 0
0.76 0.18 0
0.78 0.18 0
0.8 0.18 0
0.82 0.18 0
0.84 0.18 0
0.86 0.18 0
0.88 0.18 0
0.9 0.18 0
0.92 0.18 0
0.94 0.18 0
0.96 0.18 0
0.98 0.18 0
1 0.18 0
0 0.2 0
0.02 0.2 0
0.04 0.2 0
0.06 0.2 0
0.08 0.2 0
0.1 0.2 0
0.12 0.2 0
0.14 0.2 0
0.16 0.2 0
0.18 0.2 0
0.2 0.2 0
0.22 0.2 0
0.24 0.2 0
0.26 0.2 0
0.28 0.2 0
0.3 0.2 0
0.32 0.2 0
0.34 0.2 0
0.36 0.2 0
0.38 0.2 0
0.4 0.2 0
0.42 0.2 0
0.44 0.2 0
0.46 0.2 0
0.48 0.2 0
0.5 0.2 0
0.52 0.2 0
0.54 0.2 0
0.56 0.2 0
0.58 0.2 0
0.6 0.2 0
0.62 0.2 0
0.64 0.2 0
0.66 0.2 0
0.68 0.2 0
0.7 0.2 0
0.72 0.2 0
0.74 0.2 0
0.76 0.2 0
0.78 0.2 0
0.8 0.2 0
0.82 0.2 0
0.84 0.2 0
0.86 0.2 0
0.88 0.2 0
0.9 0.2 0
0.92 0.2 0
0.94 0.2 0
0.96 0.2 0
0.98 0.2 0
1 0.2 0
0 0.22 0
0.02 0.22 0
0.04 0.22 0
0.06 0.22 0
0.08 0.22 0
0.1 0.22 0
0.12 0.22 0
0.14 0.22 0
0.16 0.22 0
0.18 0.22 0
0.2 0.22 0
0.22 0.22 0
0.24 0.22 0
0.26 0.22 0
0.28 0.22 0
0.3 0.22 0
0.32 0.22 0
0.34 0.22 0
0.36 0.22 0
0.38 0.22 0
0.4 0.22 0
0.42 0.22 0
0.44 0.22 0
0.46 0.22 0
0.48 0.22 0
0.5 0.22 0
0.52 0.22 0
0.54 0.22 0
0.56 0.22 0
0.58 0.22 0
0.6 0.22 0
0.62 0.22 0
0.64 0.22 0
0.66 0.22 0
0.68 0.22 0
0.7 0.22 0
0.72 0.22 0
0.74 0.22 0
0.76 0.22 0
0.78 0.22 0
0.8 0.22 0
0.82 0.22 0
0.84 0.22 0
0.86 0.22 0
0.88 0.22 0
0.9 0.22 0
0.92 0.22 0
0.94 0.22 0
0.96 0.22 0
0.98 0.22 0
1 0.22 0
0 0.24 0
0.02 0.24 0
0.04 0.24 0
0.06 0.24 0
0.08 0.24 0
0.1 0.24 0
0.12 0.24 0
0.14 0.24 0
0.16 0.24 0
0.18 0.24 0
0.2 0.24 0
0.22 0.24 0
0.24 0.24 0
0.26 0.24 0
0.28 0.24 0
0.3 0.24 0
0.32 0.24 0
0.34 0.24 0
0.36 0.24 0
0.38 0.24 0
0.4 0.24 0
0.42 0.24 0
0.44 0.24 0
0.46 0.24 0
0.48 0.24 0
0.5 0.24 0
0.52 0.24 0
0.54 0.24 0
0.56 0.24 0
0.58 0.24 0
0.6 0.24 0
0.62 0.24 0
0.64 0.24 0
0.66 0.24 0
0.68 0.24 0
0.7 0.24 0
0.72 0.24 0
0.74 0.24 0
0.76 0.24 0
0.78 0.24 0
0.8 0.24 0
0.82 0.24 0
0.84 0.24 0
0.86 0.24 0
0.88 0.24 0
0.9 0.24 0
0.92 0.24 0
0.94 0.24 0
0.96 0.24 0
0.98 0.24 0
1 0.24 0
0 0.26 0
0.02 0.26 0
0.04 0.26 0
0.06 0.26 0
0.08 0.26 0
0.1 0.26 0
0.12 0.26 0
0.14 0.26 0
0.16 0.26 0
0.18 0.26 0
0.2 0.26 0
0.22 0.26 0
0.24 0.26 0
0.26 0.26 0
0.28 0.26 0
0.3 0.26 0
0.32 0.26 0
0.34 0.26 0
0.36 0.26 0
0.38 0.26 0
0.4 0.26 0
0.42 0.26 0
0.44 0.26 0
0.46 0.26 0
0.48 0.26 0
0.5 0.26 0
0.52 0.26 0
0.54 0.26 0
0.56 0.26 0
0.58 0.26 0
0.6 0.26 0
0.62 0.26 0
0.64 0.26 0
0.66 0.26 0
0.68 0.26 0
0.7 0.26 0
0.72 0.26 0
0.74 0.26 0
0.76 0.26 0
0.78 0.26 0
0.8 0.26 0
0.82 0.26 0
0.84 0.26 0
0.86 0.26 0
0.88 0.26 0
0.9 0.26 0
0.92 0.26 0
0.94 0.26 0
0.96 0.26 0
0.98 0.26 0
1 0.26 0
0 0.28 0
0.02 0.28 0
0.04 0.28 0
0.06 0.28 0
0.08 0.28 0
0.1 0.28 0
0.12 0.28 0
0.14 0.28 0
0.16 0.28 0
0.18 0.28 0
0.2 0.28 0
0.22 0.28 0
0.24 0.28 0
0.26 0.28 0
0.28 0.28 0
0.3 0.28 0
0.32 0.28 0
0.34 0.28 0
0.36 0.28 0
0.38 0.28 0
0.4 0.28 0
0.42 0.28 0
0.44 0.28 0
0.46 0.28 0
0.48 0.28 0
0.5 0.28 0
0.52 0.28 0
0.54 0.28 0
0.56 0.28 0
0.58 0.28 0
0.6 0.28 0
0.62 0.28 0
0.64 0.28 0
0.66 0.28 0
0.68 0.28 0
0.7 0.28 0
0.72 0.28 0
0.74 0.28 0
0.76 0.28 0
0.78 0.28 0
0.8 0.28 0
0.82 0.28 0
0.84 0.28 0
0.86 0.28 0
0.88 0.28 0
0.9 0.28 0
0.92 0.28 0
0.94 0.28 0
0.96 0.28 0
0.98 0.28 0
1 0.28 0
0 0.3 0
0.02 0.3 0
0.04 0.3 0
0.06 0.3 0
0.08 0.3 0
0.1 0.3 0
0.12 0.3 0
0.14 0.3 0
0.16 0.3 0
0.18 0.3 0
0.2 0.3 0
0.22 0.3 0
0.24 0.3 0
0.26 0.3 0
0.28 0.3 0
0.3 0.3 0
0.32 0.3 0
0.34 0.3 0
0.36 0.3 0
0.38 0.3 0
0.4 0.3 0
0.42 0.3 0
0.44 0.3 0
0.46 0.3 0
0.48 0.3 0
0.5 0.3 0
0.52 0.3 0
0.54 0.3 0
0.56 0.3 0
0.58 0.3 0
0.6 0.3 0
0.62 0.3 0
0.64 0.3 0
0.66 0.3 0
0.68 0.3 0
0.7 0.3 0
0.72 0.3 0
0.74 0.3 0
0.76 0.3 0
0.78 0.3 0
0.8 0.3 0
0.82 0.3 0
0.84 0.3 0
0.86 0.3 0
0.88 0.3 0
0.9 0.3 0
0.92 0.3 0
0.94 0.3 0
0.96 0.3 0
0.98 0.3 0
1 0.3 0
0 0.32 0
0.02 0.32 0
0.04 0.32 0
0.06 0.32 0
0.08 0.32 0
0.1 0.32 0
0.12 0.32 0
0.14 0.32 0
0.16 0.32 0
0.18 0.32 0
0.2 0.32 0
0.22 0.32 0
0.24 0.32 0
0.26 0.32 0
0.28 0.32 0
0.3 0.32 0
0.32 0.32 0
0.34 0.32 0
0.36 0.32 0
0.38 0.32 0
0.4 0.32 0
0.42 0.32 0
0.44 0.32 0
0.46 0.32 0
0.48 0.32 0
0.5 0.32 0
0.52 0.32 0
0.54 0.32 0
0.56 0.32 0
0.58 0.32 0
0.6 0.32 0
0.62 0.32 0
0.64 0.32 0
0.66 0.32 0
0.68 0.32 0
0.7 0.32 0
0.72 0.32 0
0.74 0.32 0
0.76 0.32 0
0.78 0.32 0
0.8 0.32 0
0.82 0.32 0
0.84 0.32 0
0.86 0.32 0
0.88 0.32 0
0.9 0.32 0
0.92 0.32 0
0.94 0.32 0
0.96 0.32 0
0.98 0.32 0
1 0.32 0
0 0.34 0
0.02 0.34 0
0.04 0.34 0
0.06 0.34 0
0.08 0.34 0
[...]
POINT_DATA 2601
SCALARS pressure float 1
LOOKUP_TABLE default
2.21155
2.21244
2.21354
2.21457
2.21496
2.21447
2.21289
2.21025
2.20665
2.20231
2.1975
2.19248
2.18749
2.18272
2.17829
2.17426
2.17067
2.16751
2.16475
2.16233
2.16022
2.15835
2.15669
2.15521
2.15386
2.15262
2.15149
2.15045
2.14949
2.14862
2.14783
2.14714
2.14653
2.14601
2.14558
2.14523
2.14497
2.14479
2.14468
2.14463
2.14465
2.14471
2.14483
2.14501
2.14523
2.1455
2.1458
2.14612
2.14639
2.14655
2.14656
2.21066
2.21151
2.21216
2.21273
2.21271
2.21196
2.2103
2.20774
2.20437
2.20037
2.19598
2.1914
2.18685
2.18248
2.17838
2.17463
2.17125
2.16823
2.16554
2.16316
2.16105
2.15916
2.15747
2.15594
2.15456
2.15329
2.15214
2.15109
2.15013
2.14926
2.14848
2.1478
2.1472
2.1467
2.14628
2.14594
2.14568
2.1455
2.14537
2.14531
2.1453
2.14534
2.14542
2.14554
2.1457
2.1459
2.14611
2.14634
2.14653
2.14669
2.1467
2.20959
2.21085
2.21156
2.21218
2.21213
2.21131
2.20955
2.20688
2.20342
2.19937
2.19497
2.19044
2.18598
2.18174
2.17779
2.1742
2.17097
2.16808
2.16551
2.16321
2.16117
2.15932
2.15766
2.15615
2.15477
2.15351
2.15235
2.15129
2.15033
2.14947
2.1487
2.14802
2.14744
2.14694
2.14653
2.14621
2.14596
2.14578
2.14566
2.1456
2.14558
2.14561
2.14568
2.14579
2.14592
2.1461
2.14629
2.14652
2.1467
2.14696
2.14697
2.20836
2.21005
2.2108
2.21145
2.21126
2.21026
2.20827
2.20537
2.20172
2.19756
2.19313
2.18867
2.18436
2.18033
2.17663
2.1733
2.17032
2.16766
2.16528
2.16315
2.16122
2.15946
2.15785
2.15636
2.15499
2.15373
2.15256
2.1515
2.15053
2.14966
2.1489
2.14823
2.14765
2.14717
2.14678
2.14648
2.14624
2.14608
2.14597
2.14592
2.1459
2.14593
2.14598
2.14607
2.14618
2.14633
2.1465
2.14673
2.14691
2.14729
2.1473
2.20726
2.20942
2.21026
2.21096
2.21062
2.20933
2.20696
2.20367
2.19967
2.19525
2.19069
2.18623
2.18204
2.17821
2.17479
2.17176
2.16909
2.16673
2.16461
2.1627
2.16094
2.15931
2.15778
2.15635
2.155
2.15374
2.15256
2.15148
2.1505
2.14962
2.14884
2.14817
2.14761
2.14715
2.14678
2.1465
2.14629
2.14615
2.14607
2.14604
2.14604
2.14607
2.14613
2.14621
2.14632
2.14646
2.14663
2.14688
2.14708
2.1476
2.1476
2.20627
2.20887
2.20976
2.21041
2.20977
2.20802
2.2051
2.20126
2.19681
2.19208
2.18738
2.18295
2.17893
2.17538
2.17232
2.16969
2.16742
2.16544
2.16366
2.16203
2.1605
2.15903
2.15761
2.15623
2.1549
2.15363
2.15243
2.15132
2.1503
2.14939
2.1486
2.14792
2.14736
2.14691
2.14656
2.14631
2.14614
2.14604
2.146
2.146
2.14603
2.14609
2.14616
2.14626
2.14637
2.14652
2.14668
2.14696
2.14718
2.14782
2.14783
2.20548
2.20852
2.2094
2.20989
2.20876
2.20637
2.20273
2.19822
2.19323
2.18817
2.18335
2.17899
2.1752
2.17201
2.16938
2.16722
2.16542
2.16388
2.16249
2.16119
2.15991
2.15863
2.15733
2.15601
2.15469
2.1534
2.15215
2.15098
2.1499
2.14894
2.1481
2.1474
2.14683
2.14639
2.14607
2.14585
2.14573
2.14568
2.14569
2.14574
2.14582
2.14591
2.14602
2.14614
2.14627
2.14643
2.14661
2.14692
2.14716
2.14792
2.14792
2.205
2.20845
2.20921
2.20936
2.20756
2.20433
2.19981
2.19455
2.18901
2.18365
2.17877
2.17456
2.17109
2.16834
2.16621
2.16457
2.16329
2.16223
2.16127
2.16031
2.15931
2.15821
2.15702
2.15575
2.15443
2.15308
2.15176
2.1505
2.14934
2.14829
2.14739
2.14664
2.14605
2.14561
2.1453
2.14512
2.14505
2.14506
2.14513
2.14524
2.14538
2.14553
2.14568
2.14584
2.146
2.14619
2.14638
2.14672
2.14699
2.14784
2.14784
2.205
2.20883
2.20933
2.20895
2.20626
2.20202
2.19653
2.19049
2.18444
2.17884
2.17399
2.17002
2.16694
2.16467
2.16308
2.16199
2.16124
2.16067
2.16012
2.15951
2.15877
2.15785
2.15676
2.15551
2.15415
2.15273
2.15131
2.14992
2.14864
2.14748
2.14648
2.14566
2.14503
2.14457
2.14427
2.14412
2.14409
2.14416
2.1443
2.14448
2.14469
2.14491
2.14513
2.14534
2.14554
2.14576
2.14598
2.14635
2.14663
2.14755
2.14755
2.20574
2.20986
2.20995
2.20882
2.20506
2.19969
2.19318
2.18639
2.1799
2.17416
2.16942
2.16574
2.16309
2.16132
2.16026
2.15971
2.15947
2.15934
2.15919
2.1589
2.15838
2.15761
2.15659
2.15534
2.15392
2.1524
2.15083
2.1493
2.14786
2.14656
2.14544
2.14453
2.14382
2.14332
2.14302
2.14288
2.14289
2.14302
2.14322
2.14348
2.14377
2.14406
2.14435
2.14462
2.14486
2.14512
2.14537
2.14576
2.14606
2.14702
2.14703
2.20757
2.21184
2.21135
2.20926
2.20428
2.1977
2.19021
2.18274
2.1759
2.1701
2.16551
2.16214
2.15989
2.15859
2.158
2.15792
2.15811
2.15837
2.15855
2.15851
2.15818
2.15752
2.15654
2.15527
2.15377
2.15211
2.1504
2.14869
2.14708
2.14561
2.14435
2.14331
2.14251
2.14195
2.14161
2.14147
2.1415
2.14167
2.14193
2.14226
2.14262
2.14299
2.14334
2.14367
2.14397
2.14427
2.14455
2.14496
2.14526
2.14625
2.14626
2.2109
2.21512
2.21387
2.21065
2.20435
2.19657
2.18816
2.1801
2.17298
2.16714
2.16268
2.15956
2.15763
2.15667
2.15644
2.1567
2.15721
2.15777
2.15819
2.15834
2.15815
2.15756
2.15659
2.15528
2.15369
2.15191
2.15003
2.14816
2.14636
2.14472
2.1433
2.14212
2.1412
2.14055
2.14016
2.13999
2.14001
2.1402
2.1405
2.14087
2.14129
2.14172
2.14214
2.14253
2.14287
2.14321
2.14351
2.14394
2.14424
2.14523
2.14523
2.21621
2.22013
2.21796
2.21345
2.20583
2.1969
2.18764
2.17904
2.17164
2.1657
2.16127
2.15824
2.15645
2.15566
2.15561
2.15605
2.15674
2.15745
2.15801
2.15828
2.15816
2.15761
2.15664
2.15529
2.15363
2.15174
2.14974
2.14771
2.14576
2.14396
2.14238
2.14105
2.14001
2.13925
2.13877
2.13854
2.13852
2.13869
2.13899
2.13939
2.13984
2.14031
2.14077
2.1412
2.14158
2.14195
2.14226
2.14269
2.143
2.14396
2.14396
2.224
2.22731
2.22411
2.21823
2.20929
2.19926
2.1892
2.18005
2.17227
2.16607
2.16145
2.15829
2.15639
2.15552
2.15541
2.15582
2.15648
2.15719
2.15775
2.15803
2.15792
2.15739
2.15642
2.15507
2.15338
2.15146
2.1494
2.1473
2.14526
2.14335
2.14165
2.1402
2.13903
2.13816
2.13757
2.13724
2.13715
2.13726
2.13753
2.1379
2.13835
2.13882
2.13929
2.13973
2.14013
2.1405
2.14082
2.14124
2.14154
2.14246
2.14246
2.23477
2.23713
2.23283
2.22553
2.21532
2.20421
2.19331
2.18346
2.17511
2.16839
2.16328
2.15965
2.15731
2.15602
2.15555
2.15562
2.15601
2.1565
2.15689
2.15705
2.15689
2.15634
2.1554
2.1541
2.15249
2.15065
2.14867
2.14664
2.14464
2.14275
2.14104
2.13955
2.13831
2.13734
2.13665
2.13621
2.13602
2.13603
2.1362
2.13651
2.13689
2.13732
2.13775
2.13817
2.13855
2.1389
2.1392
2.1396
2.13988
2.14075
2.14075
2.24894
2.25001
2.24459
2.23584
2.22438
2.21212
2.20024
2.18949
2.18024
2.17261
2.1666
2.16206
2.15883
2.15671
2.15545
2.15481
2.15458
2.15454
2.15451
2.15438
2.15403
2.15343
2.15255
2.1514
2.15002
2.14847
2.1468
2.14509
2.1434
2.14177
2.14026
2.1389
2.13774
2.13678
2.13604
2.13551
2.1352
2.13508
2.13512
2.13529
2.13556
2.13588
2.13622
2.13656
2.13687
2.13717
2.13742
2.13778
2.13803
2.13884
2.13885
2.26681
2.26625
2.25973
2.24949
2.23674
2.22322
2.21011
2.19808
2.18748
2.17845
2.17097
2.16497
2.16028
2.15674
2.15413
2.15224
2.15087
2.14986
2.14905
2.14833
2.14763
2.1469
2.14612
2.14525
2.14433
2.14336
2.14238
2.1414
2.14044
2.13951
2.13861
2.13775
2.13695
2.13624
2.13561
2.1351
2.13472
2.13447
2.13435
2.13434
2.13442
2.13457
2.13476
2.13496
2.13514
2.13534
2.1355
2.13579
2.13599
2.13676
2.13676
2.28846
2.28593
2.27835
2.26659
2.25246
2.23743
2.22271
2.2089
2.19639
2.18528
2.17564
2.1674
2.16048
2.15473
2.14999
2.1461
2.14291
2.14028
2.13812
2.13638
2.13501
2.13402
2.13333
2.1329
2.13273
2.13279
2.13305
2.13342
2.13386
2.13431
2.13471
2.13499
2.13514
2.13513
2.135
2.13476
2.13448
2.13418
2.13392
2.1337
2.13355
2.13345
2.1334
2.13338
2.13338
2.13341
2.13345
2.13364
2.13377
2.1345
2.1345
2.31365
2.30889
2.30031
2.28695
2.27125
2.25434
2.2375
2.22129
2.20605
2.19202
2.17927
2.16782
2.15765
2.14865
2.14072
2.13374
2.12767
2.12253
2.1183
2.11498
2.11257
2.11109
2.11045
2.1106
2.11148
2.11303
2.11514
2.11766
2.12047
2.12338
2.12617
2.12865
2.1307
2.13227
2.13334
2.13393
2.13413
2.13403
2.13374
2.13336
2.13295
2.13255
2.13218
2.13187
2.13159
2.13139
2.13124
2.1313
2.13135
2.13204
2.13205
2.34173
2.33453
2.32498
2.3099
2.29234
2.27307
2.25348
2.23394
2.21502
2.19695
2.17993
2.16401
2.14919
2.13548
2.12301
2.11177
2.10187
2.09333
2.0862
2.08055
2.07651
2.07414
2.07339
2.07415
2.07636
2.07991
2.08461
2.0902
2.09637
2.10286
2.10933
2.11544
2.12094
2.12551
2.12901
2.13145
2.13291
2.13356
2.13358
2.1332
2.13257
2.13184
2.1311
2.1304
2.12977
2.12927
2.12887
2.12875
2.12868
2.12936
2.12936
2.37176
2.36197
2.35151
2.33448
2.31463
2.29235
2.26896
2.24503
2.22116
2.19771
2.17488
2.15282
2.13185
2.11225
2.09404
2.07725
2.06217
2.04895
2.03782
2.02897
2.0226
2.01882
2.01765
2.01893
2.02259
2.0285
2.03644
2.04607
2.05689
2.06843
2.08017
2.0915
2.10204
2.11137
2.11922
2.12522
2.12934
2.13179
2.13286
2.1329
2.13227
2.13127
2.13012
2.12896
2.12789
2.127
2.12628
2.12593
2.12572
2.12638
2.12638
2.40172
2.38921
2.37774
2.35854
2.33594
2.30969
2.2815
2.25189
2.22163
2.19109
2.16089
2.13157
2.10321
2.07598
2.05022
2.02638
2.00486
1.986
1.9701
1.95744
1.94823
1.94265
1.94077
1.94237
1.94739
1.95567
1.96696
1.9809
1.99699
2.01467
2.03328
2.05199
2.06988
2.0861
2.1002
2.11185
2.12084
2.12693
2.1304
2.13179
2.13168
2.13064
2.12913
2.12748
2.12589
2.12451
2.12339
2.12275
2.12235
2.123
2.123
2.43045
2.4154
2.40291
2.38097
2.35435
2.32285
2.28835
2.25148
2.21308
2.17436
2.13574
2.09724
2.05949
2.02318
1.98889
1.95716
1.92853
1.90346
1.88233
1.86546
1.85311
1.84545
1.84261
1.84431
1.85048
1.86098
1.87555
1.89383
1.9153
1.93935
1.96523
1.99207
2.01887
2.04459
2.06791
2.08774
2.10378
2.11598
2.12415
2.12856
2.13007
2.12959
2.12796
2.12585
2.12367
2.12173
2.12012
2.11911
2.11846
2.11907
2.11907
2.45271
2.43465
2.42078
2.39572
2.36488
2.32745
2.28559
2.24021
2.19313
2.14483
2.09564
2.0466
1.99859
1.95249
1.90911
1.86917
1.83329
1.80201
1.77573
1.75476
1.73934
1.72962
1.72572
1.72732
1.73434
1.74666
1.76404
1.78615
1.81255
1.84267
1.87575
1.91087
1.94694
1.98272
2.01687
2.04804
2.07449
2.09541
2.1108
2.12094
2.12604
2.12737
2.12624
2.12388
2.12112
2.11853
2.11633
2.11486
2.1139
2.11442
2.11442
2.4712
2.45132
2.43552
2.40545
2.36775
2.322
2.27099
2.21629
2.15881
2.09907
2.03853
1.97832
1.91972
1.8638
1.81157
1.76384
1.72126
1.68436
1.65351
1.62898
1.61093
1.59945
1.59463
1.59612
1.60379
1.61753
1.63712
1.6623
1.6927
1.72783
1.76709
1.80965
1.85448
1.9003
1.94557
1.98863
2.02775
2.06119
2.08709
2.10557
2.11725
2.1226
2.1233
2.12127
2.11808
2.11477
2.11188
2.10984
2.10847
2.10881
2.10882
2.46996
2.44563
2.42797
2.395
2.35261
2.29986
2.24071
2.17587
2.10686
2.03546
1.96335
1.89217
1.82346
1.75849
1.69834
1.64382
1.59558
1.55406
1.51956
1.49225
1.47222
1.45949
1.45408
1.45558
1.46387
1.47879
1.50015
1.52771
1.56119
1.60019
1.64424
1.69271
1.74474
1.79925
1.8548
1.90962
1.96164
2.0087
2.04875
2.07937
2.10045
2.11298
2.11787
2.11743
2.11426
2.11031
2.1066
2.10383
2.10195
2.102
2.102
2.46978
2.44602
2.42429
2.38182
2.32839
2.26513
2.19472
2.1177
2.03677
1.95358
1.87044
1.78919
1.71154
1.63884
1.57213
1.51218
1.45953
1.41452
1.37736
1.34813
1.32683
1.31341
1.30775
1.30956
1.31859
1.33465
1.35755
1.38707
1.42297
1.46493
1.51259
1.56548
1.62296
1.68419
1.74804
1.81296
1.87696
1.9376
1.99215
2.03805
2.07261
2.09535
2.10776
2.11129
2.10923
2.10488
2.1003
2.09664
2.09408
2.09366
2.09367
2.4246
2.39309
2.37127
2.32934
2.27474
2.20556
2.12589
2.03873
1.94701
1.85343
1.76074
1.67102
1.5861
1.50729
1.43557
1.37158
1.31576
1.26833
1.2294
1.19899
1.17704
1.16343
1.158
1.1604
1.17036
1.18766
1.2121
1.24346
1.28148
1.32589
1.3764
1.43265
1.49416
1.56035
1.63037
1.70306
1.77679
1.84934
1.91788
1.97908
2.02981
2.06692
2.08995
2.10095
2.10214
2.09815
2.09275
2.08799
2.08458
2.08348
2.08348
2.40171
2.37505
2.34447
2.28733
2.21774
2.13374
2.04157
1.94247
1.84005
1.73706
1.63629
1.53981
1.44935
1.36605
1.29077
1.22399
1.16605
1.11708
1.07712
1.04615
1.02405
1.01069
1.00585
1.00916
1.0203
1.03905
1.06518
1.09843
1.13855
1.18528
1.23832
1.29737
1.36207
1.43198
1.50652
1.58487
1.66585
1.74771
1.828
1.90345
1.97011
2.02413
2.06188
2.08339
2.09144
2.08945
2.08355
2.07758
2.0731
2.07102
2.07102
2.29378
2.25568
2.23196
2.1818
2.11261
2.02632
1.92893
1.82311
1.71388
1.60449
1.49819
1.3971
1.30292
1.21668
1.13911
1.07059
1.01138
0.96157
0.921171
0.890124
0.868317
0.855584
0.851691
0.856204
0.868813
0.889264
0.9173
0.952643
0.995015
1.04412
1.09968
1.16138
1.2289
1.30189
1.37993
1.46245
1.54865
1.63731
1.72656
1.81364
1.89478
1.96526
2.02052
2.05643
2.0744
2.07772
2.07222
2.06499
2.05924
2.05583
2.05583
2.24598
2.21695
2.17918
2.1083
2.02103
1.91912
1.80853
1.69235
1.57518
1.45984
1.34916
1.24484
1.1483
1.06029
0.981425
0.911983
0.852182
0.802084
0.761718
0.731018
0.709883
0.698137
0.695533
0.701577
0.715964
0.738413
0.76864
0.806338
0.851196
0.902894
0.961114
1.02553
1.09583
1.17168
1.25273
1.33857
1.42865
1.52217
1.61785
1.71364
1.80639
1.89166
1.96383
2.01749
2.04874
2.06086
2.05806
2.04961
2.04249
2.03733
2.03734
2.06255
2.02353
1.99371
1.93168
1.85437
1.7581
1.65029
1.53453
1.41672
1.30027
1.18848
1.08321
0.985885
0.897301
0.818019
0.74835
0.68851
0.638608
0.598692
0.568733
0.548641
0.538249
0.537292
0.545212
0.561713
0.586493
0.619235
0.659599
0.707239
0.761801
0.822929
0.89027
0.96348
1.04222
1.12615
1.21494
1.30817
1.4053
1.50553
1.60745
1.70877
1.80578
1.89309
1.9641
2.01239
2.03594
2.03984
2.03092
2.0223
2.01493
2.01493
1.98964
1.96375
1.92038
1.83865
1.73971
1.62453
1.50243
1.37707
1.25338
1.13361
1.02021
0.914224
0.816728
0.728175
0.649083
0.579696
0.52029
0.470998
0.431934
0.403099
0.384437
0.375784
0.376864
0.387035
0.406026
0.433506
0.469123
0.512505
0.563265
0.621009
0.685342
0.755874
0.832221
0.914016
1.00091
1.09256
1.18862
1.28871
1.39228
1.49847
1.60571
1.71127
1.8106
1.89719
1.96319
2.00177
2.01512
2.00835
1.99781
1.98792
1.98792
1.72009
1.67515
1.64093
1.57827
1.5021
1.40545
1.29783
1.18238
1.06544
0.950237
0.839871
0.736016
0.639985
0.552563
0.474371
0.405837
0.347317
0.299062
0.261249
0.233947
0.217125
0.210633
0.214168
0.227008
0.248902
0.279496
0.318393
0.365185
0.419439
0.480723
0.548595
0.622623
0.702382
0.787466
0.87749
0.972095
1.07094
1.17369
1.27996
1.38919
1.50039
1.61174
1.71977
1.81889
1.90078
1.95672
1.98151
1.98096
1.96853
1.9556
1.9556
1.63478
1.62094
1.57137
1.48607
1.38048
1.25968
1.13414
1.00737
0.884413
0.766502
0.655667
0.552295
0.457321
0.371034
0.294043
0.226694
0.169453
0.122619
0.0864681
0.0611172
0.0465825
0.0427089
0.0491607
0.0651358
0.090398
0.124568
0.167197
0.217835
0.276001
0.341217
0.412996
0.490857
0.574334
0.662975
0.756358
0.854087
0.955801
1.06116
1.16984
1.28144
1.39532
1.51036
1.62411
1.73229
1.82724
1.89936
1.93887
1.94672
1.93419
1.91725
1.91725
1.2753
1.21148
1.18394
1.12875
1.06324
0.977245
0.880238
0.774698
0.666749
0.559494
0.455854
0.357589
0.266106
0.182442
0.107478
0.0419355
-0.0135654
-0.058531
-0.0925858
-0.115516
-0.12727
-0.127999
-0.118139
-0.0985201
-0.0693623
-0.0310997
0.015767
0.0707361
0.133278
0.202859
0.278944
0.361004
0.448527
0.541017
0.638011
0.739074
0.843811
0.951857
1.06288
1.17653
1.29238
1.40971
1.52687
1.64089
1.74534
1.83098
1.88616
1.90316
1.89463
1.87205
1.87205
1.19398
1.19777
1.14571
1.0606
0.954599
0.835808
0.7142
0.592262
0.475206
0.363308
0.258465
0.160498
0.0703836
-0.0116211
-0.0847011
-0.148335
-0.201786
-0.244522
-0.276039
-0.296063
-0.304485
-0.301491
-0.28778
-0.263869
-0.230194
-0.187248
-0.135572
-0.07573
-0.00830297
0.0661165
0.146942
0.233591
0.325508
0.422152
0.523025
0.627652
0.735603
0.846478
0.959911
1.07556
1.19303
1.31186
1.43088
1.54821
1.65871
1.75459
1.82328
1.85173
1.84984
1.82026
1.82027
0.719883
0.639908
0.628492
0.589782
0.544874
0.479898
0.403029
0.315997
0.223872
0.130002
0.0372874
-0.0520483
-0.136299
-0.213994
-0.283856
-0.344721
-0.395577
-0.435578
-0.464067
-0.48063
-0.485118
-0.477743
-0.459444
-0.430617
-0.391773
-0.343491
-0.286375
-0.221061
-0.14819
-0.0684189
0.0176077
0.109257
0.205927
0.30704
0.412062
0.52049
0.631862
0.745747
0.861742
0.979474
1.09853
1.21853
1.33853
1.45745
1.57118
1.67391
1.75315
1.7937
1.79924
1.76238
1.76238
0.685713
0.709426
0.654516
0.57216
0.471568
0.361629
0.250841
0.138878
0.0312578
-0.0722885
-0.169253
-0.260168
-0.343929
-0.420267
-0.488072
-0.546586
-0.594749
-0.631723
-0.656713
-0.669245
-0.669123
-0.656629
-0.632983
-0.598461
-0.553684
-0.499317
-0.436055
-0.364607
-0.285684
-0.200015
-0.108304
-0.0112364
0.0905472
0.196435
0.305871
0.41833
0.533333
0.650427
0.769177
0.889178
1.00996
1.13116
1.25187
1.37151
1.48655
1.59324
1.6797
1.72993
1.74347
1.701
1.701
0.0533957
-0.0374704
-0.0216158
-0.034126
-0.0506003
-0.0859628
-0.134377
-0.194361
-0.263511
-0.338377
-0.416074
-0.493372
-0.567946
-0.637642
-0.700676
-0.755305
-0.799949
-0.833239
-0.85412
-0.861912
-0.856386
-0.837897
-0.808029
-0.766926
-0.715328
-0.654033
-0.583831
-0.505529
-0.419906
-0.327769
-0.229886
-0.126992
-0.0197557
0.0911874
0.205273
0.321971
0.440798
0.561298
0.683021
0.805543
0.928346
1.05105
1.17266
1.29292
1.4085
1.51753
1.60856
1.66705
1.68908
1.64346
1.64346
0.131513
0.168881
0.107365
0.0274158
-0.0629203
-0.158136
-0.25126
-0.347591
-0.441929
-0.535429
-0.623939
-0.707411
-0.784302
-0.854395
-0.916253
-0.968748
-1.01037
-1.0399
-1.05617
-1.05849
-1.04665
-1.02118
-0.984066
-0.935346
-0.875896
-0.8067
-0.728676
-0.642742
-0.54975
-0.450577
-0.346057
-0.236966
-0.123987
-0.00776168
0.111156
0.23225
0.355056
0.479132
0.604042
0.729363
0.854557
0.979233
1.10232
1.22373
1.34008
1.45119
1.54557
1.61248
1.64272
1.59824
1.59824
-0.720563
-0.817242
-0.762841
-0.741588
-0.726148
-0.726461
-0.740675
-0.765299
-0.802273
-0.84958
-0.905956
-0.967082
-1.0293
-1.08907
-1.14371
-1.19065
-1.22753
-1.25219
-1.26295
-1.2588
-1.23953
-1.2059
-1.1603
-1.10275
-1.03425
-0.95605
-0.86923
-0.774849
-0.673828
-0.567096
-0.45554
-0.339962
-0.22104
-0.0993941
0.0244521
0.150021
0.276889
0.404658
0.532928
0.661315
0.789298
0.916522
1.04186
1.16542
1.28358
1.39776
1.49576
1.57279
1.61091
1.57565
1.57564
-0.445093
-0.416829
-0.489336
-0.570738
-0.645922
-0.721914
-0.791427
-0.865878
-0.940663
-1.01979
-1.09857
-1.17542
-1.24664
-1.31135
-1.36779
-1.41438
-1.44879
-1.46916
-1.4739
-1.46218
-1.43403
-1.39101
-1.33565
-1.26779
-1.18885
-1.10034
-1.00368
-0.900047
-0.790413
-0.67571
-0.556848
-0.434631
-0.309699
-0.182628
-0.05388
0.0761282
0.20704
0.338524
0.470247
0.601899
0.733025
0.863361
0.991813
1.11872
1.24027
1.35939
1.46281
1.55298
1.60207
1.58501
1.585
-1.61088
-1.69664
-1.59305
-1.53459
-1.48853
-1.45267
-1.43171
-1.41664
-1.41281
-1.4199
-1.44183
-1.47702
-1.52138
-1.56856
-1.61335
-1.65122
-1.67845
-1.69182
-1.68872
-1.66769
-1.62898
-1.5757
-1.50805
-1.42787
-1.33698
-1.23708
-1.12955
-1.01601
-0.897376
-0.774507
-0.648283
-0.519479
-0.38866
-0.256332
-0.122866
0.0114024
0.146206
0.281301
0.41645
0.551447
0.685953
0.81985
0.952184
1.08359
1.21025
1.33656
1.44798
1.55516
1.62058
1.63113
1.63113
-1.02455
-1.05136
-1.13332
-1.21942
-1.27188
-1.3257
-1.3684
-1.41766
-1.46719
-1.52396
-1.58554
-1.65278
-1.72022
-1.78332
-1.83747
-1.88011
-1.90785
-1.91746
-1.90659
-1.8747
-1.82272
-1.7555
-1.67371
-1.5789
-1.47405
-1.36173
-1.24345
-1.11975
-0.992151
-0.861265
-0.727922
-0.592844
-0.456488
-0.319265
-0.18144
-0.0432436
0.0951558
0.233619
0.372021
0.510282
0.648222
0.785916
0.922663
1.05946
1.19275
1.32828
1.45035
1.57801
1.66379
1.70835
1.70835
-2.62468
-2.66066
-2.50837
-2.41449
-2.34223
-2.27417
-2.22271
-2.17288
-2.12996
-2.0911
-2.06219
-2.04872
-2.05563
-2.07938
-2.11039
-2.13762
-2.15249
-2.14939
-2.12532
-2.07851
-2.01067
-1.92728
-1.82808
-1.71661
-1.59632
-1.47002
-1.34048
-1.20774
-1.07164
-0.933288
-0.793344
-0.652519
-0.511136
-0.369503
-0.227763
-0.0860383
0.0556073
0.197141
0.338555
0.479905
0.621191
0.762705
0.9041
1.04678
1.1878
1.33419
1.46967
1.62167
1.73001
1.82076
1.82076
-1.61819
-1.75201
-1.82193
-1.90254
-1.91958
-1.94878
-1.96479
-1.99183
-2.01882
-2.05296
-2.09051
-2.13541
-2.18857
-2.24994
-2.30954
-2.35541
-2.37934
-2.37696
-2.34453
-2.28164
-2.19547
-2.08898
-1.96695
-1.83515
-1.69771
-1.55755
-1.41643
-1.27501
-1.13132
-0.985784
-0.839481
-0.693076
-0.546752
-0.400706
-0.254962
-0.10954
0.0355913
0.180492
0.325255
0.470058
0.615072
0.760793
0.907271
1.0563
1.20593
1.36433
1.51632
1.6975
1.83485
2.00153
2.00152
-3.75614
-3.67416
-3.50086
-3.37269
-3.27769
-3.18625
-3.1128
-3.04289
-2.97858
-2.9139
-2.84754
-2.77844
-2.71417
-2.6693
-2.65427
-2.65716
-2.65156
-2.61713
-2.54752