# vtk DataFile Version 2.0
insac
ASCII
DATASET STRUCTURED_GRID
DIMENSIONS 76 76 1
POINTS 5776 float
0 0 0
0.0133333 0 0
0.0266667 0 0
0.04 0 0
0.0533333 0 0
0.0666667 0 0
0.08 0 0
0.0933333 0 0
0.106667 0 0
0.12 0 0
0.133333 0 0
0.146667 0 0
0.16 0 0
0.173333 0 0
0.186667 0 0
0.2 0 0
0.213333 0 0
0.226667 0 0
0.24 0 0
0.253333 0 0
0.266667 0 0
0.28 0 0
0.293333 0 0
0.306667 0 0
0.32 0 0
0.333333 0 0
0.346667 0 0
0.36 0 0
0.373333 0 0
0.386667 0 0
0.4 0 0
0.413333 0 0
0.426667 0 0
0.44 0 0
0.453333 0 0
0.466667 0 0
0.48 0 0
0.493333 0 0
0.506667 0 0
0.52 0 0
0.533333 0 0
0.546667 0 0
0.56 0 0
0.573333 0 0
0.586667 0 0
0.6 0 0
0.613333 0 0
0.626667 0 0
0.64 0 0
0.653333 0 0
0.666667 0 0
0.68 0 0
0.693333 0 0
0.706667 0 0
0.72 0 0
0.733333 0 0
0.746667 0 0
0.76 0 0
0.773333 0 0
0.786667 0 0
0.8 0 0
0.813333 0 0
0.826667 0 0
0.84 0 0
0.853333 0 0
0.866667 0 0
0.88 0 0
0.893333 0 0
0.906667 0 0
0.92 0 0
0.933333 0 0
0.946667 0 0
0.96 0 0
0.973333 0 0
0.986667 0 0
1 0 0
0 0.0133333 0
0.0133333 0.0133333 0
0.0266667 0.0133333 0
0.04 0.0133333 0
0.0533333 0.0133333 0
0.0666667 0.0133333 0
0.08 0.0133333 0
0.0933333 0.0133333 0
0.106667 0.0133333 0
0.12 0.0133333 0
0.133333 0.0133333 0
0.146667 0.0133333 0
0.16 0.0133333 0
0.173333 0.0133333 0
0.186667 0.0133333 0
0.2 0.0133333 0
0.213333 0.0133333 0
0.226667 0.0133333 0
0.24 0.0133333 0
0.253333 0.0133333 0
0.266667 0.0133333 0
0.28 0.0133333 0
0.293333 0.0133333 0
0.306667 0.0133333 0
0.32 0.0133333 0
0.333333 0.0133333 0
0.346667 0.0133333 0
0.36 0.0133333 0
0.373333 0.0133333 0
0.386667 0.0133333 0
0.4 0.0133333 0
0.413333 0.0133333 0
0.426667 0.0133333 0
0.44 0.0133333 0
0.453333 0.0133333 0
0.466667 0.0133333 0
0.48 0.0133333 0
0.493333 0.0133333 0
0.506667 0.0133333 0
0.52 0.0133333 0
0.533333 0.0133333 0
0.546667 0.0133333 0
0.56 0.0133333 0
0.573333 0.0133333 0
0.586667 0.0133333 0
0.6 0.0133333 0
0.613333 0.0133333 0
0.626667 0.0133333 0
0.64 0.0133333 0
0.653333 0.0133333 0
0.666667 0.0133333 0
0.68 0.0133333 0
0.693333 0.0133333 0
0.706667 0.0133333 0
0.72 0.0133333 0
0.733333 0.0133333 0
0.746667 0.0133333 0
0.76 0.0133333 0
0.773333 0.0133333 0
0.786667 0.0133333 0
0.8 0.0133333 0
0.813333 0.0133333 0
0.826667 0.0133333 0
0.84 0.0133333 0
0.853333 0.0133333 0
0.866667 0.0133333 0
0.88 0.0133333 0
0.893333 0.0133333 0
0.906667 0.0133333 0
0.92 0.0133333 0
0.933333 0.0133333 0
0.946667 0.0133333 0
0.96 0.0133333 0
0.973333 0.0133333 0
0.986667 0.0133333 0
1 0.0133333 0
0 0.0266667 0
0.0133333 0.0266667 0
0.0266667 0.0266667 0
0.04 0.0266667 0
0.0533333 0.0266667 0
0.0666667 0.0266667 0
0.08 0.0266667 0
0.0933333 0.0266667 0
0.106667 0.0266667 0
0.12 0.0266667 0
0.133333 0.0266667 0
0.146667 0.0266667 0
0.16 0.0266667 0
0.173333 0.0266667 0
0.186667 0.0266667 0
0.2 0.0266667 0
0.213333 0.0266667 0
0.226667 0.0266667 0
0.24 0.0266667 0
0.253333 0.0266667 0
0.266667 0.0266667 0
0.28 0.0266667 0
0.293333 0.0266667 0
0.306667 0.0266667 0
0.32 0.0266667 0
0.333333 0.0266667 0
0.346667 0.0266667 0
0.36 0.0266667 0
0.373333 0.0266667 0
0.386667 0.0266667 0
0.4 0.0266667 0
0.413333 0.0266667 0
0.426667 0.0266667 0
0.44 0.0266667 0
0.453333 0.0266667 0
0.466667 0.0266667 0
0.48 0.0266667 0
0.493333 0.0266667 0
0.506667 0.0266667 0
0.52 0.0266667 0
0.533333 0.0266667 0
0.546667 0.0266667 0
0.56 0.0266667 0
0.573333 0.0266667 0
0.586667 0.0266667 0
0.6 0.0266667 0
0.613333 0.0266667 0
0.626667 0.0266667 0
0.64 0.0266667 0
0.653333 0.0266667 0
0.666667 0.0266667 0
0.68 0.0266667 0
0.693333 0.0266667 0
0.706667 0.0266667 0
0.72 0.0266667 0
0.733333 0.0266667 0
0.746667 0.0266667 0
0.76 0.0266667 0
0.773333 0.0266667 0
0.786667 0.0266667 0
0.8 0.0266667 0
0.813333 0.0266667 0
0.826667 0.0266667 0
0.84 0.0266667 0
0.853333 0.0266667 0
0.866667 0.0266667 0
0.88 0.0266667 0
0.893333 0.0266667 0
0.906667 0.0266667 0
0.92 0.0266667 0
0.933333 0.0266667 0
0.946667 0.0266667 0
0.96 0.0266667 0
0.973333 0.0266667 0
0.986667 0.0266667 0
1 0.0266667 0
0 0.04 0
0.0133333 0.04 0
0.0266667 0.04 0
0.04 0.04 0
0.0533333 0.04 0
0.0666667 0.04 0
0.08 0.04 0
0.0933333 0.04 0
0.106667 0.04 0
0.12 0.04 0
0.133333 0.04 0
0.146667 0.04 0
0.16 0.04 0
0.173333 0.04 0
0.186667 0.04 0
0.2 0.04 0
0.213333 0.04 0
0.226667 0.04 0
0.24 0.04 0
0.253333 0.04 0
0.266667 0.04 0
0.28 0.04 0
0.293333 0.04 0
0.306667 0.04 0
0.32 0.04 0
0.333333 0.04 0
0.346667 0.04 0
0.36 0.04 0
0.373333 0.04 0
0.386667 0.04 0
0.4 0.04 0
0.413333 0.04 0
0.426667 0.04 0
0.44 0.04 0
0.453333 0.04 0
0.466667 0.04 0
0.48 0.04 0
0.493333 0.04 0
0.506667 0.04 0
0.52 0.04 0
0.533333 0.04 0
0.546667 0.04 0
0.56 0.04 0
0.573333 0.04 0
0.586667 0.04 0
0.6 0.04 0
0.613333 0.04 0
0.626667 0.04 0
0.64 0.04 0
0.653333 0.04 0
0.666667 0.04 0
0.68 0.04 0
0.693333 0.04 0
0.706667 0.04 0
0.72 0.04 0
0.733333 0.04 0
0.746667 0.04 0
0.76 0.04 0
0.773333 0.04 0
0.786667 0.04 0
0.8 0.04 0
0.813333 0.04 0
0.826667 0.04 0
0.84 0.04 0
0.853333 0.04 0
0.866667 0.04 0
0.88 0.04 0
0.893333 0.04 0
0.906667 0.04 0
0.92 0.04 0
0.933333 0.04 0
0.946667 0.04 0
0.96 0.04 0
0.973333 0.04 0
0.986667 0.04 0
1 0.04 0
0 0.0533333 0
0.0133333 0.0533333 0
0.0266667 0.0533333 0
0.04 0.0533333 0
0.0533333 0.0533333 0
0.0666667 0.0533333 0
0.08 0.0533333 0
0.0933333 0.0533333 0
0.106667 0.0533333 0
0.12 0.0533333 0
0.133333 0.0533333 0
0.146667 0.0533333 0
0.16 0.0533333 0
0.173333 0.0533333 0
0.186667 0.0533333 0
0.2 0.0533333 0
0.213333 0.0533333 0
0.226667 0.0533333 0
0.24 0.0533333 0
0.253333 0.0533333 0
0.266667 0.0533333 0
0.28 0.0533333 0
0.293333 0.0533333 0
0.306667 0.0533333 0
0.32 0.0533333 0
0.333333 0.0533333 0
0.346667 0.0533333 0
0.36 0.0533333 0
0.373333 0.0533333 0
0.386667 0.0533333 0
0.4 0.0533333 0
0.413333 0.0533333 0
0.426667 0.0533333 0
0.44 0.0533333 0
0.453333 0.0533333 0
0.466667 0.0533333 0
0.48 0.0533333 0
0.493333 0.0533333 0
0.506667 0.0533333 0
0.52 0.0533333 0
0.533333 0.0533333 0
0.546667 0.0533333 0
0.56 0.0533333 0
0.573333 0.0533333 0
0.586667 0.0533333 0
0.6 0.0533333 0
0.613333 0.0533333 0
0.626667 0.0533333 0
0.64 0.0533333 0
0.653333 0.0533333 0
0.666667 0.0533333 0
0.68 0.0533333 0
0.693333 0.0533333 0
0.706667 0.0533333 0
0.72 0.0533333 0
0.733333 0.0533333 0
0.746667 0.0533333 0
0.76 0.0533333 0
0.773333 0.0533333 0
0.786667 0.0533333 0
0.8 0.0533333 0
0.813333 0.0533333 0
0.826667 0.0533333 0
0.84 0.0533333 0
0.853333 0.0533333 0
0.866667 0.0533333 0
0.88 0.0533333 0
0.893333 0.0533333 0
0.906667 0.0533333 0
0.92 0.0533333 0
0.933333 0.0533333 0
0.946667 0.0533333 0
0.96 0.0533333 0
0.973333 0.0533333 0
0.986667 0.0533333 0
1 0.0533333 0
0 0.0666667 0
0.0133333 0.0666667 0
0.0266667 0.0666667 0
0.04 0.0666667 0
0.0533333 0.0666667 0
0.0666667 0.0666667 0
0.08 0.0666667 0
0.0933333 0.0666667 0
0.106667 0.0666667 0
0.12 0.0666667 0
0.133333 0.0666667 0
0.146667 0.0666667 0
0.16 0.0666667 0
0.173333 0.0666667 0
0.186667 0.0666667 0
0.2 0.0666667 0
0.213333 0.0666667 0
0.226667 0.0666667 0
0.24 0.0666667 0
0.253333 0.0666667 0
0.266667 0.0666667 0
0.28 0.0666667 0
0.293333 0.0666667 0
0.306667 0.0666667 0
0.32 0.0666667 0
0.333333 0.0666667 0
0.346667 0.0666667 0
0.36 0.0666667 0
0.373333 0.0666667 0
0.386667 0.0666667 0
0.4 0.0666667 0
0.413333 0.0666667 0
0.426667 0.0666667 0
0.44 0.0666667 0
0.453333 0.0666667 0
0.466667 0.0666667 0
0.48 0.0666667 0
0.493333 0.0666667 0
0.506667 0.0666667 0
0.52 0.0666667 0
0.533333 0.0666667 0
0.546667 0.0666667 0
0.56 0.0666667 0
0.573333 0.0666667 0
0.586667 0.0666667 0
0.6 0.0666667 0
0.613333 0.0666667 0
0.626667 0.0666667 0
0.64 0.0666667 0
0.653333 0.0666667 0
0.666667 0.0666667 0
0.68 0.0666667 0
0.693333 0.0666667 0
0.706667 0.0666667 0
0.72 0.0666667 0
0.733333 0.0666667 0
0.746667 0.0666667 0
0.76 0.0666667 0
0.773333 0.0666667 0
0.786667 0.0666667 0
0.8 0.0666667 0
0.813333 0.0666667 0
0.826667 0.0666667 0
0.84 0.0666667 0
0.853333 0.0666667 0
0.866667 0.0666667 0
0.88 0.0666667 0
0.893333 0.0666667 0
0.906667 0.0666667 0
0.92 0.0666667 0
0.933333 0.0666667 0
0.946667 0.0666667 0
0.96 0.0666667 0
0.973333 0.0666667 0
0.986667 0.0666667 0
1 0.0666667 0
0 0.08 0
0.0133333 0.08 0
0.0266667 0.08 0
0.04 0.08 0
0.0533333 0.08 0
0.0666667 0.08 0
0.08 0.08 0
0.0933333 0.08 0
0.106667 0.08 0
0.12 0.08 0
0.133333 0.08 0
0.146667 0.08 0
0.16 0.08 0
0.173333 0.08 0
0.186667 0.08 0
0.2 0.08 0
0.213333 0.08 0
0.226667 0.08 0
0.24 0.08 0
0.253333 0.08 0
0.266667 0.08 0
0.28 0.08 0
0.293333 0.08 0
0.306667 0.08 0
0.32 0.08 0
0.333333 0.08 0
0.346667 0.08 0
0.36 0.08 0
0.373333 0.08 0
0.386667 0.08 0
0.4 0.08 0
0.413333 0.08 0
0.426667 0.08 0
0.44 0.08 0
0.453333 0.08 0
0.466667 0.08 0
0.48 0.08 0
0.493333 0.08 0
0.506667 0.08 0
0.52 0.08 0
0.533333 0.08 0
0.546667 0.08 0
0.56 0.08 0
0.573333 0.08 0
0.586667 0.08 0
0.6 0.08 0
0.613333 0.08 0
0.626667 0.08 0
0.64 0.08 0
0.653333 0.08 0
0.666667 0.08 0
0.68 0.08 0
0.693333 0.08 0
0.706667 0.08 0
0.72 0.08 0
0.733333 0.08 0
0.746667 0.08 0
0.76 0.08 0
0.773333 0.08 0
0.786667 0.08 0
0.8 0.08 0
0.813333 0.08 0
0.826667 0.08 0
0.84 0.08 0
0.853333 0.08 0
0.866667 0.08 0
0.88 0.08 0
0.893333 0.08 0
0.906667 0.08 0
0.92 0.08 0
0.933333 0.08 0
0.946667 0.08 0
0.96 0.08 0
0.973333 0.08 0
0.986667 0.08 0
1 0.08 0
0 0.0933333 0
0.0133333 0.0933333 0
0.0266667 0.0933333 0
0.04 0.0933333 0
0.0533333 0.0933333 0
0.0666667 0.0933333 0
0.08 0.0933333 0
0.0933333 0.0933333 0
0.106667 0.0933333 0
0.12 0.0933333 0
0.133333 0.0933333 0
0.146667 0.0933333 0
0.16 0.0933333 0
0.173333 0.0933333 0
0.186667 0.0933333 0
0.2 0.0933333 0
0.213333 0.0933333 0
0.226667 0.0933333 0
0.24 0.0933333 0
0.253333 0.0933333 0
0.266667 0.0933333 0
0.28 0.0933333 0
0.293333 0.0933333 0
0.306667 0.0933333 0
0.32 0.0933333 0
0.333333 0.0933333 0
0.346667 0.0933333 0
0.36 0.0933333 0
0.373333 0.0933333 0
0.386667 0.0933333 0
0.4 0.0933333 0
0.413333 0.0933333 0
0.426667 0.0933333 0
0.44 0.0933333 0
0.453333 0.0933333 0
0.466667 0.0933333 0
0.48 0.0933333 0
0.493333 0.0933333 0
0.506667 0.0933333 0
0.52 0.0933333 0
0.533333 0.0933333 0
0.546667 0.0933333 0
0.56 0.0933333 0
[...]
POINT_DATA 5776
SCALARS pressure float 1
LOOKUP_TABLE default
0.0151144
0.015115
0.0150828
0.0149831
0.0148252
0.0146286
0.0144089
0.0141784
0.0139485
0.0137273
0.0135199
0.0133307
0.013163
0.0130195
0.012902
0.012812
0.0127516
0.0127211
0.0127177
0.0127409
0.0127943
0.012879
0.0129937
0.0131381
0.013312
0.0135153
0.0137476
0.0140087
0.0142978
0.0146143
0.0149571
0.015325
0.0157166
0.0161299
0.016563
0.0170133
0.0174781
0.017954
0.0184383
0.018928
0.0194179
0.0199035
0.0203807
0.0208452
0.0212924
0.0217178
0.022117
0.0224858
0.0228201
0.0231164
0.0233713
0.0235823
0.0237472
0.0238633
0.0239276
0.0239449
0.0239214
0.0238526
0.0237365
0.0235788
0.0233843
0.0231577
0.0229044
0.0226304
0.0223419
0.0220455
0.0217498
0.021464
0.0211969
0.0209578
0.0207565
0.0206041
0.020511
0.0204779
0.0204946
0.0205137
0.0151216
0.0151217
0.0150906
0.0149973
0.0148516
0.0146709
0.0144686
0.0142559
0.0140425
0.0138364
0.0136425
0.0134652
0.0133078
0.0131729
0.0130625
0.0129781
0.0129217
0.0128938
0.0128919
0.0129158
0.0129688
0.0130518
0.0131636
0.013304
0.0134729
0.0136702
0.0138956
0.0141487
0.0144288
0.0147353
0.0150671
0.0154231
0.0158017
0.0162013
0.0166198
0.0170547
0.0175036
0.017963
0.0184303
0.0189026
0.0193749
0.019843
0.0203029
0.0207505
0.0211813
0.0215911
0.0219757
0.022331
0.0226532
0.0229388
0.0231847
0.0233885
0.0235482
0.0236615
0.0237255
0.0237442
0.0237235
0.0236597
0.0235511
0.023403
0.0232201
0.0230068
0.0227683
0.0225103
0.0222389
0.0219606
0.0216833
0.0214156
0.0211654
0.0209416
0.020753
0.020609
0.0205188
0.020484
0.0204976
0.0205156
0.0151702
0.0151675
0.0151347
0.0150498
0.0149236
0.014769
0.0145962
0.0144137
0.0142292
0.0140496
0.01388
0.0137243
0.0135858
0.013467
0.0133698
0.0132958
0.0132471
0.0132241
0.0132249
0.0132499
0.013302
0.0133814
0.0134874
0.0136199
0.0137791
0.0139646
0.0141762
0.0144136
0.0146761
0.0149631
0.0152736
0.0156065
0.0159604
0.0163336
0.0167242
0.0171301
0.0175486
0.0179768
0.0184121
0.0188515
0.019291
0.0197265
0.0201542
0.0205704
0.0209709
0.0213519
0.0217095
0.0220399
0.0223397
0.0226057
0.0228351
0.0230257
0.0231757
0.0232836
0.0233466
0.0233676
0.023352
0.023297
0.0232017
0.0230707
0.0229084
0.0227187
0.0225064
0.0222769
0.0220357
0.0217889
0.0215442
0.0213082
0.0210879
0.0208909
0.0207241
0.0205942
0.0205091
0.0204718
0.0204817
0.0204985
0.0152873
0.0152768
0.0152323
0.0151456
0.0150273
0.0148868
0.0147313
0.0145677
0.0144026
0.0142421
0.0140905
0.0139513
0.0138276
0.0137216
0.0136351
0.0135695
0.0135272
0.0135083
0.013511
0.0135366
0.0135872
0.013663
0.0137635
0.0138887
0.0140387
0.0142134
0.0144124
0.0146356
0.0148823
0.0151519
0.0154435
0.0157561
0.0160884
0.0164388
0.0168056
0.0171867
0.0175793
0.0179813
0.01839
0.0188023
0.019215
0.019624
0.0200256
0.0204165
0.0207927
0.0211507
0.0214867
0.0217974
0.0220795
0.0223299
0.0225463
0.0227263
0.0228687
0.0229719
0.0230336
0.0230559
0.0230437
0.0229952
0.0229095
0.0227909
0.0226434
0.0224709
0.0222776
0.0220686
0.021849
0.0216244
0.0214015
0.021187
0.0209871
0.0208077
0.0206547
0.0205335
0.0204508
0.0204113
0.0204177
0.0204331
0.0154635
0.0154394
0.0153724
0.0152744
0.0151543
0.0150176
0.01487
0.0147171
0.0145647
0.0144174
0.0142787
0.0141518
0.0140393
0.0139432
0.013865
0.0138062
0.0137688
0.0137529
0.013757
0.0137824
0.0138313
0.0139034
0.0139985
0.0141167
0.0142581
0.0144226
0.0146101
0.0148202
0.0150525
0.0153065
0.0155813
0.015876
0.0161893
0.01652
0.0168661
0.0172256
0.0175961
0.0179762
0.018363
0.0187531
0.0191436
0.0195309
0.0199115
0.020282
0.0206388
0.0209785
0.0212975
0.0215927
0.0218608
0.0220992
0.0223053
0.0224771
0.0226134
0.0227127
0.0227729
0.0227957
0.0227857
0.0227416
0.0226627
0.0225527
0.0224156
0.022255
0.0220749
0.0218801
0.0216755
0.0214659
0.0212574
0.0210563
0.0208682
0.0206982
0.0205518
0.0204338
0.0203496
0.0203043
0.0203026
0.0203135
0.0156816
0.01564
0.0155432
0.0154272
0.0152992
0.0151605
0.0150155
0.0148687
0.0147246
0.0145865
0.0144574
0.0143399
0.0142362
0.014148
0.0140766
0.0140231
0.0139896
0.013976
0.0139808
0.0140055
0.014052
0.0141201
0.0142095
0.0143206
0.0144533
0.0146077
0.0147838
0.0149812
0.0151996
0.0154385
0.0156974
0.0159752
0.0162708
0.0165829
0.0169096
0.0172492
0.0176004
0.0179612
0.0183282
0.0186986
0.0190697
0.0194381
0.0198006
0.0201539
0.0204943
0.0208186
0.0211234
0.0214057
0.0216624
0.0218907
0.0220884
0.0222535
0.0223846
0.0224806
0.0225393
0.0225623
0.0225537
0.0225127
0.0224386
0.0223348
0.0222051
0.022053
0.0218824
0.0216975
0.0215032
0.021304
0.0211054
0.0209128
0.0207312
0.0205657
0.0204209
0.0203013
0.0202112
0.0201559
0.0201408
0.020144
0.015927
0.0158657
0.0157347
0.0155968
0.0154566
0.0153111
0.0151639
0.0150186
0.0148782
0.0147455
0.0146227
0.0145118
0.0144146
0.0143323
0.0142658
0.0142163
0.0141855
0.0141732
0.0141779
0.0142012
0.0142448
0.0143084
0.0143919
0.0144956
0.0146197
0.0147642
0.0149291
0.0151143
0.0153195
0.0155442
0.0157879
0.0160498
0.0163286
0.0166232
0.0169325
0.0172552
0.0175899
0.0179335
0.0182831
0.0186365
0.0189912
0.0193438
0.0196912
0.0200303
0.0203575
0.0206696
0.0209633
0.0212354
0.0214831
0.0217038
0.021895
0.022055
0.0221822
0.0222756
0.022333
0.0223559
0.0223481
0.0223091
0.0222379
0.0221381
0.0220132
0.0218664
0.0217015
0.0215226
0.0213341
0.0211405
0.0209466
0.0207577
0.0205782
0.0204125
0.0202652
0.0201399
0.0200404
0.0199712
0.0199375
0.0199302
0.0161885
0.0161061
0.0159384
0.015776
0.0156202
0.0154639
0.0153108
0.0151633
0.0150234
0.014893
0.0147738
0.0146671
0.0145741
0.0144957
0.0144327
0.0143857
0.0143562
0.0143442
0.0143481
0.0143692
0.0144092
0.0144679
0.0145453
0.0146415
0.0147569
0.0148915
0.0150455
0.0152186
0.0154109
0.0156217
0.0158506
0.016097
0.0163604
0.0166397
0.0169343
0.0172425
0.0175619
0.0178899
0.0182246
0.0185638
0.0189048
0.0192444
0.0195794
0.019907
0.0202237
0.0205264
0.0208117
0.0210764
0.0213177
0.0215329
0.0217196
0.021876
0.0220006
0.0220922
0.0221488
0.0221715
0.0221642
0.0221262
0.0220568
0.0219591
0.0218366
0.0216925
0.0215303
0.021354
0.0211677
0.0209757
0.0207825
0.0205929
0.0204111
0.0202413
0.0200873
0.019953
0.0198412
0.0197545
0.0196979
0.019678
0.0164553
0.0163516
0.0161464
0.0159575
0.0157832
0.0156134
0.0154517
0.0152992
0.0151571
0.0150265
0.0149084
0.0148037
0.0147129
0.0146368
0.0145756
0.0145298
0.0145005
0.0144876
0.0144899
0.0145082
0.0145439
0.0145972
0.0146679
0.0147563
0.0148627
0.0149873
0.01513
0.0152908
0.01547
0.0156673
0.0158826
0.0161153
0.0163654
0.0166319
0.0169131
0.0172073
0.0175126
0.0178273
0.0181494
0.0184766
0.0188064
0.0191357
0.0194612
0.01978
0.020089
0.0203848
0.0206642
0.0209241
0.0211614
0.0213734
0.0215577
0.0217122
0.0218355
0.0219265
0.0219828
0.0220056
0.0219985
0.0219611
0.0218924
0.0217954
0.0216735
0.0215298
0.0213677
0.021191
0.0210036
0.0208098
0.0206135
0.0204195
0.0202319
0.0200542
0.0198901
0.0197434
0.0196165
0.0195097
0.0194277
0.0193943
0.0167172
0.0165927
0.0163502
0.0161337
0.0159393
0.0157544
0.0155821
0.0154225
0.015276
0.0151431
0.0150242
0.0149195
0.0148294
0.0147538
0.014693
0.014647
0.0146166
0.0146019
0.0146017
0.0146162
0.0146468
0.0146939
0.0147572
0.0148369
0.0149335
0.0150474
0.0151788
0.0153281
0.0154951
0.0156803
0.0158838
0.0161047
0.0163424
0.0165959
0.016864
0.0171453
0.0174385
0.017742
0.0180537
0.0183712
0.0186921
0.0190135
0.0193321
0.0196449
0.0199487
0.0202403
0.0205163
0.0207737
0.0210093
0.0212204
0.0214042
0.0215588
0.0216825
0.021774
0.021831
0.0218544
0.0218478
0.0218106
0.021742
0.0216446
0.0215219
0.0213767
0.0212125
0.0210328
0.0208416
0.0206428
0.0204404
0.0202388
0.0200418
0.019853
0.0196759
0.0195139
0.0193694
0.0192404
0.0191315
0.0190839
0.0169673
0.0168223
0.0165428
0.0162983
0.0160832
0.015882
0.0156977
0.0155293
0.0153767
0.0152399
0.0151184
0.0150122
0.014921
0.0148445
0.0147827
0.0147352
0.0147022
0.0146842
0.0146803
0.0146897
0.014714
0.0147538
0.014809
0.01488
0.0149671
0.0150708
0.0151917
0.0153305
0.0154868
0.0156607
0.015852
0.0160606
0.0162856
0.0165265
0.0167826
0.0170529
0.017336
0.01763
0.0179331
0.018243
0.0185572
0.018873
0.0191872
0.0194965
0.0197979
0.0200878
0.0203631
0.0206205
0.0208567
0.021069
0.0212546
0.0214112
0.021537
0.0216306
0.0216895
0.0217142
0.0217085
0.0216718
0.0216029
0.0215044
0.0213798
0.0212317
0.0210635
0.0208788
0.0206813
0.020475
0.0202637
0.0200515
0.0198423
0.0196396
0.0194466
0.0192669
0.0191027
0.0189497
0.0188128
0.0187507
0.0171993
0.0170343
0.0167184
0.0164459
0.0162096
0.0159913
0.0157938
0.0156154
0.0154555
0.015313
0.0151873
0.0150777
0.0149837
0.0149047
0.0148402
0.0147897
0.0147531
0.0147308
0.0147222
0.0147263
0.0147439
0.0147761
0.0148234
0.014886
0.0149642
0.0150583
0.0151689
0.0152962
0.0154406
0.0156023
0.015781
0.0159771
0.0161902
0.01642
0.0166657
0.0169264
0.0172007
0.0174869
0.0177832
0.0180873
0.0183969
0.0187093
0.0190214
0.0193297
0.0196311
0.0199221
0.0201993
0.0204593
0.0206987
0.0209146
0.021104
0.0212646
0.0213944
0.0214918
0.0215541
0.0215815
0.0215773
0.0215415
0.0214725
0.0213727
0.0212454
0.0210933
0.0209198
0.0207282
0.0205225
0.0203064
0.0200838
0.0198584
0.0196345
0.0194153
0.019204
0.0190044
0.0188185
0.0186401
0.0184744
0.0183975
0.017407
0.0172226
0.016871
0.0165708
0.0163131
0.0160772
0.0158654
0.0156755
0.0155066
0.0153573
0.0152263
0.0151125
0.0150148
0.0149323
0.0148642
0.0148098
0.0147689
0.0147416
0.0147279
0.0147265
0.0147375
0.0147621
0.0148008
0.0148538
0.0149215
0.0150046
0.0151034
0.0152184
0.0153503
0.0154995
0.0156664
0.0158509
0.0160532
0.0162727
0.016509
0.0167611
0.0170278
0.0173076
0.0175987
0.0178989
0.0182059
0.018517
0.0188292
0.0191389
0.0194428
0.0197374
0.0200192
0.0202845
0.0205298
0.0207519
0.0209478
0.0211147
0.0212505
0.0213535
0.0214209
0.0214523
0.0214507
0.0214167
0.0213482
0.0212471
0.0211168
0.0209602
0.0207802
0.0205805
0.0203647
0.0201369
0.0199008
0.0196603
0.0194192
0.0191811
0.0189495
0.0187278
0.0185186
0.0183138
0.0181184
0.0180263
0.0175848
0.0173815
0.0169951
0.0166673
0.0163876
0.0161332
0.0159069
0.0157055
0.0155275
0.015371
0.0152345
0.015116
0.015014
0.0149275
0.0148552
0.0147964
0.0147503
0.0147169
0.0146961
0.0146876
0.0146906
0.0147058
0.0147343
0.0147763
0.0148323
0.0149033
0.0149898
0.0150926
0.0152124
0.0153497
0.015505
0.0156784
0.0158702
0.01608
0.0163075
0.0165518
0.0168121
0.0170867
0.0173741
0.0176721
0.0179783
0.0182901
0.0186045
0.018918
0.0192269
0.0195278
0.0198167
0.02009
0.0203441
0.0205752
0.0207803
0.0209562
0.0211006
0.0212114
0.021286
0.0213231
0.0213254
0.0212942
0.0212272
0.0211253
0.0209922
0.0208306
0.0206436
0.0204347
0.0202076
0.0199664
0.019715
0.0194573
0.0191971
0.0189382
0.018684
0.0184383
0.0182042
0.0179719
0.017746
0.0176385
0.0177267
0.017505
0.0170843
0.0167288
0.0164279
0.016156
0.0159161
0.0157043
0.0155176
0.0153537
0.0152104
0.0150859
0.0149783
0.0148862
0.0148082
0.0147433
0.0146907
0.0146496
0.0146202
0.0146026
0.0145964
0.0146014
0.0146185
0.0146489
0.0146931
0.0147519
0.014826
0.0149163
0.0150237
0.0151489
0.0152924
0.0154548
0.0156362
0.0158366
0.0160559
0.0162933
0.0165479
0.0168186
0.0171036
0.0174008
0.017708
0.0180224
0.0183411
0.0186606
0.0189771
0.0192867
0.0195856
0.0198698
0.0201354
0.0203786
0.0205957
0.0207835
0.0209393
0.0210607
0.021145
0.02119
0.0211979
0.0211711
0.0211067
0.0210049
0.0208695
0.0207031
0.0205088
0.02029
0.0200507
0.0197948
0.0195265
0.0192499
0.0189688
0.0186871
0.0184085
0.018137
0.0178765
0.0176154
0.017358
0.0172346
0.0178259
0.0175863
0.0171329
0.0167522
0.0164323
0.0161448
0.0158913
0.0156677
0.015471
0.0152984
0.0151473
0.0150156
0.0149011
0.0148022
0.0147171
0.0146448
0.0145843
0.0145349
0.0144962
0.0144685
0.0144519
0.0144463
0.0144519
0.0144698
0.0145012
0.014547
0.014608
0.0146853
0.0147797
0.0148923
0.0150238
0.0151749
0.0153459
0.0155372
0.0157485
0.0159794
0.0162292
0.0164968
0.0167805
0.0170784
0.0173881
0.0177069
0.0180319
0.0183596
0.0186861
0.0190072
0.0193188
0.0196169
0.0198972
0.0201555
0.0203879
0.0205909
0.0207611
0.0208961
0.0209932
0.0210488
0.0210645
0.021044
0.020984
0.0208837
0.0207467
0.020576
0.0203744
0.0201456
0.0198933
0.0196218
0.0193353
0.0190382
0.0187345
0.0184283
0.0181235
0.0178245
0.017536
0.0172446
0.0169548
0.016815
0.0178784
0.0176224
0.0171399
0.0167365
0.0163976
0.0160932
0.0158251
0.0155888
0.0153813
0.0151994
0.0150401
0.0149007
0.0147788
0.0146724
0.0145796
0.014499
0.0144298
0.0143709
0.0143221
0.0142833
0.0142548
0.0142372
0.0142305
0.0142353
0.0142528
0.0142845
0.0143314
0.0143947
0.0144755
0.0145749
0.0146939
0.0148333
0.0149938
0.0151757
0.0153792
0.015604
0.0158494
0.0161146
0.0163979
0.0166976
0.0170113
0.0173363
0.0176695
0.0180075
0.0183464
0.0186817
0.019009
0.0193241
0.0196223
0.0198991
0.0201503
0.0203719
0.0205601
0.0207121
0.020825
0.0208946
0.0209214
0.0209092
0.0208557
0.0207589
0.0206218
0.0204476
0.0202393
0.0200004
0.0197348
0.019447
0.0191413
0.0188223
0.0184946
0.0181622
0.0178295
0.0175012
0.017183
0.0168599
0.0165362
0.0163795
0.0178849
0.017614
0.0171027
0.0166752
0.0163163
0.0159945
0.0157121
0.0154637
0.0152458
0.0150545
0.0148867
0.0147391
0.014609
0.0144943
0.0143928
0.0143031
0.0142239
0.0141546
0.0140945
0.0140435
0.014002
0.0139705
0.0139498
0.0139407
0.0139437
0.01396
0.0139916
0.01404
0.0141062
0.0141915
0.0142972
0.0144244
0.0145738
0.0147461
0.0149416
0.0151602
0.0154016
0.0156647
0.0159484
0.0162508
0.0165698
0.0169025
0.0172457
0.0175961
0.0179498
0.018302
0.0186481
0.0189833
0.0193029
0.0196019
0.0198757
0.0201197
0.0203298
0.0205027
0.020635
0.0207226
0.0207641
0.0207627
0.0207181
0.0206275
0.0204922
0.0203159
0.0201018
0.0198533
0.0195745
0.0192699
0.0189442
0.0186023
0.018249
0.0178891
0.0175267
0.0171674
0.0168178
0.0164612
0.0161019
0.0159276
0.0178419
0.0175549
0.0170136
0.0165616
0.0161836
0.0158457
0.0155497
0.0152895
0.0150611
0.0148604
0.0146835
0.0145271
0.0143882
0.0142643
0.0141532
0.0140532
0.0139631
0.013882
0.0138093
0.0137451
0.0136894
0.0136428
0.0136063
0.0135812
0.0135686
0.0135692
0.0135841
0.013616
0.0136664
0.0137367
0.0138281
0.0139421
0.0140797
0.0142418
0.0144288
0.014641
0.0148782
0.0151395
0.015424
0.0157299
0.0160551
0.0163968
0.0167519
0.0171167
0.0174874
0.0178593
0.0182271
0.0185859
0.0189305
0.0192557
0.0195561
0.0198268
0.0200632
0.0202611
0.0204171
0.0205271
0.0205873
0.0205999
0.0205675
0.0204862
0.0203552
0.0201789
0.0199604
0.0197032
0.0194115
0.0190901
0.0187438
0.018378
0.0179981
0.017609
0.0172154
0.0168232
0.0164403
0.0160484
0.0156517
0.0154588
0.0177392
0.0174366
0.0168667
0.0163925
0.0159968
0.0156436
0.0153343
0.0150625
0.0148237
0.0146132
0.0144269
0.0142612
0.0141128
0.0139789
0.0138572
0.0137459
0.0136436
0.0135495
0.013463
0.013384
0.0133128
0.01325
0.0131965
0.0131535
0.013123
0.0131063
0.0131041
0.0131182
0.0131511
0.0132048
0.0132807
0.0133803
0.013505
0.0136559
0.0138337
0.0140389
0.0142715
0.014531
0.0148164
0.0151262
0.0154584
0.0158103
0.0161787
0.0165599
0.0169498
0.0173439
0.0177367
0.0181226
0.018496
0.0188514
0.0191829
0.019485
0.0197524
0.0199803
0.0201647
0.0203015
0.0203855
0.0204169
0.0203998
0.020331
0.0202079
0.020034
0.019813
0.0195486
0.0192449
0.0189068
0.0185399
0.0181495
0.0177417
0.017322
0.0168956
0.0164688
0.0160506
0.0156212
0.0151847
0.0149721
0.0175717
0.0172551
0.0166594
0.0161646
0.0157522
0.0153843
0.0150623
0.0147791
0.0145298
0.0143094
0.0141135
0.0139379
0.0137792
0.0136345
0.0135013
0.0133776
0.0132621
0.0131537
0.0130519
0.0129568
0.0128685
0.0127879
0.0127159
0.0126538
0.0126033
0.0125666
0.0125455
0.0125411
0.0125551
0.0125903
0.0126489
0.0127327
0.0128431
0.0129815
0.013149
0.0133462
0.0135735
0.0138306
0.0141167
0.0144306
0.0147702
0.0151332
0.0155162
0.0159155
0.0163269
0.0167457
0.0171665
0.0175831
0.0179894
0.0183794
0.0187467
0.0190851
0.0193888
0.0196521
0.0198703
0.020039
0.0201526
0.0202086
0.0202104
0.0201578
0.0200468
0.0198787
0.0196578
0.0193879
0.0190735
0.0187196
0.018332
0.0179167
0.01748
0.0170285
0.0165676
0.016104
0.0156485
0.0151792
0.0147005
0.0144668
0.0173376
0.0170081
0.0163885
0.0158744
0.0154462
0.0150644
0.0147302
0.0144359
0.0141762
0.0139458
0.0137398
0.0135538
0.0133843
0.013228
0.0130822
0.012945
0.0128149
0.0126909
0.0125725
0.0124596
0.0123527
0.0122526
0.0121604
0.0120775
0.0120055
0.0119467
0.0119036
0.0118785
0.0118727
0.0118877
0.0119269
0.0119928
0.0120872
0.0122114
0.012367
0.0125549
0.0127758
0.0130296
0.0133159
0.0136336
0.0139809
0.0143554
0.014754
0.015173
0.015608
0.016054
0.0165057
0.0169566
0.0173999
0.0178291
0.0182372
0.0186175
0.0189631
0.0192678
0.0195258
0.0197322
0.0198816
0.0199685
0.0199942
0.0199622
0.019868
0.0197098
0.0194922
0.0192195
0.0188962
0.0185276
0.0181198
0.0176793
0.0172132
0.0167285
0.0162315
0.0157292
0.015234
0.0147223
0.0141984
0.0139422
0.0170341
0.0166926
0.0160507
0.0155185
0.0150756
0.0146807
0.0143347
0.0140296
0.0137597
0.0135191
0.0133027
0.0131059
0.0129248
0.012756
0.0125967
0.0124449
0.012299
0.0121579
0.0120213
0.0118891
0.0117618
0.0116403
0.0115259
0.0114201
0.0113249
0.0112423
0.0111748
0.0111256
0.0110973
0.0110912
0.011109
0.0111545
0.0112304
0.0113385
0.0114802
0.0116571
0.01187
0.0121192
0.0124047
0.0127255
0.0130802
0.0134665
0.0138814
0.0143213
0.0147816
0.0152572
0.0157426
0.0162313
0.016716
0.0171891
0.0176434
0.0180712
0.018465
0.0188176
0.0191222
0.019373
0.0195644
0.0196895
0.0197465
0.0197396
0.0196668
0.019524
0.0193138
0.0190415
0.0187117
0.01833
0.0179029
0.0174375
0.0169413
0.0164223
0.0158875
0.0153446
0.0148074
0.0142504
0.0136779
0.0133975
0.0166577
0.0163052
0.0156428
0.0150939
0.0146373
0.0142301
0.0138729
0.0135574
0.0132772
0.0130264
0.0127993
0.0125911
0.0123977
0.0122156
0.0120418
0.0118741
0.0117111
0.0115515
0.0113951
0.0112418
0.0110923
0.0109475
0.0108088
0.010678
0.0105571
0.0104486
0.0103548
0.0102787
0.010224
0.0101938
0.0101891
0.0102118
0.0102663
0.0103556
0.0104812
0.0106448
0.0108476
0.0110905
0.0113736
0.0116965
0.0120578
0.0124556
0.0128871
0.0133487
0.0138359
0.0143433
0.0148652
0.0153951
0.0159253
0.0164474
0.0169534
0.0174349
0.0178835
0.018291
0.0186495
0.0189521
0.0191927
0.0193642
0.0194607
0.0194844
0.0194385
0.0193173
0.0191197
0.0188517
0.0185185
0.018126
0.0176809
0.0171911
0.0166646
0.0161104
0.0155363
0.0149507
0.0143688
0.0137634
0.0131389
0.0128323
0.0162055
0.015843
0.0151619
0.0145979
0.0141287
0.0137099
0.0133422
0.0130165
0.0127263
0.012465
0.0122269
0.0120068
0.0118004
0.0116041
0.0114147
0.01123
0.0110484
0.0108688
0.0106909
0.0105148
0.010341
0.0101708
0.0100056
0.00984738
0.00969842
0.00956129
0.00943872
0.00933361
0.00924942
0.00919051
0.00916007
0.00915877
0.00918912
0.00925607
0.00936261
0.0095102
0.00970049
0.00993472
0.0102135
0.0105367
0.0109035
0.0113121
0.01176
0.0122437
0.0127588
0.0132999
0.0138609
0.0144351
0.0150149
0.015591
0.0161544
0.016696
0.0172065
0.0176765
0.018097
0.0184598
0.0187576
0.0189834
0.0191287
0.019192
0.0191784
0.0190847
0.0189064
0.0186477
0.0183151
0.0179146
0.0174536
0.0169403
0.0163836
0.0157934
0.0151785
0.014548
0.0139188
0.0132617
0.0125811
0.0122463
0.0156748
0.0153033
0.0146056
0.0140278
0.0135471
0.0131177
0.01274
0.0124045
0.0121043
0.0118325
0.011583
0.0113505
0.0111305
0.0109189
0.0107128
0.0105099
0.0103083
0.0101072
0.00990612
0.00970522
0.00950521
0.00930734
0.0091133
0.00892516
0.00874541
0.00857685
0.00842254
0.00828563
0.00816951
0.00807824
0.00801682
0.00798811
0.00799266
0.00803409
0.00811762
0.00824593
0.00842063
0.00864336
0.00891521
0.00923655
0.00960692
0.010025
0.0104885
0.0109943
0.0115379
0.0121142
0.0127167
0.0133383
0.0139713
0.0146064
0.0152332
0.0158415
0.0164212
0.0169617
0.0174529
0.017885
0.0182492
0.0185379
0.0187424
0.0188556
0.0188807
0.0188211
0.01867
0.0184269
0.0180995
0.0176949
0.0172205
0.0166852
0.0160989
0.0154721
0.014815
0.0141376
0.0134583
0.0127459
0.012005
0.0116396
0.0150631
0.0146838
0.0139715
0.0133816
0.0128905
0.0124514
0.0120643
0.0117194
0.0114092
0.0111268
0.0108656
0.0106202
0.0103857
0.0101581
0.00993417
0.00971158
0.00948866
0.00926442
0.00903843
0.00881084
0.00858246
0.00835463
0.00812925
0.00790856
0.00769522
0.00749223
0.00730294
0.0071309
0.00697973
0.00685333
0.00675653
0.00669465
0.00667008
0.00668383
0.00674048