# vtk DataFile Version 2.0
insac_ib
ASCII
DATASET STRUCTURED_GRID
DIMENSIONS 51 51 1
POINTS 2601 float
0 0 0
0.02 0 0
0.04 0 0
0.06 0 0
0.08 0 0
0.1 0 0
0.12 0 0
0.14 0 0
0.16 0 0
0.18 0 0
0.2 0 0
0.22 0 0
0.24 0 0
0.26 0 0
0.28 0 0
0.3 0 0
0.32 0 0
0.34 0 0
0.36 0 0
0.38 0 0
0.4 0 0
0.42 0 0
0.44 0 0
0.46 0 0
0.48 0 0
0.5 0 0
0.52 0 0
0.54 0 0
0.56 0 0
0.58 0 0
0.6 0 0
0.62 0 0
0.64 0 0
0.66 0 0
0.68 0 0
0.7 0 0
0.72 0 0
0.74 0 0
0.76 0 0
0.78 0 0
0.8 0 0
0.82 0 0
0.84 0 0
0.86 0 0
0.88 0 0
0.9 0 0
0.92 0 0
0.94 0 0
0.96 0 0
0.98 0 0
1 0 0
0 0.02 0
0.02 0.02 0
0.04 0.02 0
0.06 0.02 0
0.08 0.02 0
0.1 0.02 0
0.12 0.02 0
0.14 0.02 0
0.16 0.02 0
0.18 0.02 0
0.2 0.02 0
0.22 0.02 0
0.24 0.02 0
0.26 0.02 0
0.28 0.02 0
0.3 0.02 0
0.32 0.02 0
0.34 0.02 0
0.36 0.02 0
0.38 0.02 0
0.4 0.02 0
0.42 0.02 0
0.44 0.02 0
0.46 0.02 0
0.48 0.02 0
0.5 0.02 0
0.52 0.02 0
0.54 0.02 0
0.56 0.02 0
0.58 0.02 0
0.6 0.02 0
0.62 0.02 0
0.64 0.02 0
0.66 0.02 0
0.68 0.02 0
0.7 0.02 0
0.72 0.02 0
0.74 0.02 0
0.76 0.02 0
0.78 0.02 0
0.8 0.02 0
0.82 0.02 0
0.84 0.02 0
0.86 0.02 0
0.88 0.02 0
0.9 0.02 0
0.92 0.02 0
0.94 0.02 0
0.96 0.02 0
0.98 0.02 0
1 0.02 0
0 0.04 0
0.02 0.04 0
0.04 0.04 0
0.06 0.04 0
0.08 0.04 0
0.1 0.04 0
0.12 0.04 0
0.14 0.04 0
0.16 0.04 0
0.18 0.04 0
0.2 0.04 0
0.22 0.04 0
0.24 0.04 0
0.26 0.04 0
0.28 0.04 0
0.3 0.04 0
0.32 0.04 0
0.34 0.04 0
0.36 0.04 0
0.38 0.04 0
0.4 0.04 0
0.42 0.04 0
0.44 0.04 0
0.46 0.04 0
0.48 0.04 0
0.5 0.04 0
0.52 0.04 0
0.54 0.04 0
0.56 0.04 0
0.58 0.04 0
0.6 0.04 0
0.62 0.04 0
0.64 0.04 0
0.66 0.04 0
0.68 0.04 0
0.7 0.04 0
0.72 0.04 0
0.74 0.04 0
0.76 0.04 0
0.78 0.04 0
0.8 0.04 0
0.82 0.04 0
0.84 0.04 0
0.86 0.04 0
0.88 0.04 0
0.9 0.04 0
0.92 0.04 0
0.94 0.04 0
0.96 0.04 0
0.98 0.04 0
1 0.04 0
0 0.06 0
0.02 0.06 0
0.04 0.06 0
0.06 0.06 0
0.08 0.06 0
0.1 0.06 0
0.12 0.06 0
0.14 0.06 0
0.16 0.06 0
0.18 0.06 0
0.2 0.06 0
0.22 0.06 0
0.24 0.06 0
0.26 0.06 0
0.28 0.06 0
0.3 0.06 0
0.32 0.06 0
0.34 0.06 0
0.36 0.06 0
0.38 0.06 0
0.4 0.06 0
0.42 0.06 0
0.44 0.06 0
0.46 0.06 0
0.48 0.06 0
0.5 0.06 0
0.52 0.06 0
0.54 0.06 0
0.56 0.06 0
0.58 0.06 0
0.6 0.06 0
0.62 0.06 0
0.64 0.06 0
0.66 0.06 0
0.68 0.06 0
0.7 0.06 0
0.72 0.06 0
0.74 0.06 0
0.76 0.06 0
0.78 0.06 0
0.8 0.06 0
0.82 0.06 0
0.84 0.06 0
0.86 0.06 0
0.88 0.06 0
0.9 0.06 0
0.92 0.06 0
0.94 0.06 0
0.96 0.06 0
0.98 0.06 0
1 0.06 0
0 0.08 0
0.02 0.08 0
0.04 0.08 0
0.06 0.08 0
0.08 0.08 0
0.1 0.08 0
0.12 0.08 0
0.14 0.08 0
0.16 0.08 0
0.18 0.08 0
0.2 0.08 0
0.22 0.08 0
0.24 0.08 0
0.26 0.08 0
0.28 0.08 0
0.3 0.08 0
0.32 0.08 0
0.34 0.08 0
0.36 0.08 0
0.38 0.08 0
0.4 0.08 0
0.42 0.08 0
0.44 0.08 0
0.46 0.08 0
0.48 0.08 0
0.5 0.08 0
0.52 0.08 0
0.54 0.08 0
0.56 0.08 0
0.58 0.08 0
0.6 0.08 0
0.62 0.08 0
0.64 0.08 0
0.66 0.08 0
0.68 0.08 0
0.7 0.08 0
0.72 0.08 0
0.74 0.08 0
0.76 0.08 0
0.78 0.08 0
0.8 0.08 0
0.82 0.08 0
0.84 0.08 0
0.86 0.08 0
0.88 0.08 0
0.9 0.08 0
0.92 0.08 0
0.94 0.08 0
0.96 0.08 0
0.98 0.08 0
1 0.08 0
0 0.1 0
0.02 0.1 0
0.04 0.1 0
0.06 0.1 0
0.08 0.1 0
0.1 0.1 0
0.12 0.1 0
0.14 0.1 0
0.16 0.1 0
0.18 0.1 0
0.2 0.1 0
0.22 0.1 0
0.24 0.1 0
0.26 0.1 0
0.28 0.1 0
0.3 0.1 0
0.32 0.1 0
0.34 0.1 0
0.36 0.1 0
0.38 0.1 0
0.4 0.1 0
0.42 0.1 0
0.44 0.1 0
0.46 0.1 0
0.48 0.1 0
0.5 0.1 0
0.52 0.1 0
0.54 0.1 0
0.56 0.1 0
0.58 0.1 0
0.6 0.1 0
0.62 0.1 0
0.64 0.1 0
0.66 0.1 0
0.68 0.1 0
0.7 0.1 0
0.72 0.1 0
0.74 0.1 0
0.76 0.1 0
0.78 0.1 0
0.8 0.1 0
0.82 0.1 0
0.84 0.1 0
0.86 0.1 0
0.88 0.1 0
0.9 0.1 0
0.92 0.1 0
0.94 0.1 0
0.96 0.1 0
0.98 0.1 0
1 0.1 0
0 0.12 0
0.02 0.12 0
0.04 0.12 0
0.06 0.12 0
0.08 0.12 0
0.1 0.12 0
0.12 0.12 0
0.14 0.12 0
0.16 0.12 0
0.18 0.12 0
0.2 0.12 0
0.22 0.12 0
0.24 0.12 0
0.26 0.12 0
0.28 0.12 0
0.3 0.12 0
0.32 0.12 0
0.34 0.12 0
0.36 0.12 0
0.38 0.12 0
0.4 0.12 0
0.42 0.12 0
0.44 0.12 0
0.46 0.12 0
0.48 0.12 0
0.5 0.12 0
0.52 0.12 0
0.54 0.12 0
0.56 0.12 0
0.58 0.12 0
0.6 0.12 0
0.62 0.12 0
0.64 0.12 0
0.66 0.12 0
0.68 0.12 0
0.7 0.12 0
0.72 0.12 0
0.74 0.12 0
0.76 0.12 0
0.78 0.12 0
0.8 0.12 0
0.82 0.12 0
0.84 0.12 0
0.86 0.12 0
0.88 0.12 0
0.9 0.12 0
0.92 0.12 0
0.94 0.12 0
0.96 0.12 0
0.98 0.12 0
1 0.12 0
0 0.14 0
0.02 0.14 0
0.04 0.14 0
0.06 0.14 0
0.08 0.14 0
0.1 0.14 0
0.12 0.14 0
0.14 0.14 0
0.16 0.14 0
0.18 0.14 0
0.2 0.14 0
0.22 0.14 0
0.24 0.14 0
0.26 0.14 0
0.28 0.14 0
0.3 0.14 0
0.32 0.14 0
0.34 0.14 0
0.36 0.14 0
0.38 0.14 0
0.4 0.14 0
0.42 0.14 0
0.44 0.14 0
0.46 0.14 0
0.48 0.14 0
0.5 0.14 0
0.52 0.14 0
0.54 0.14 0
0.56 0.14 0
0.58 0.14 0
0.6 0.14 0
0.62 0.14 0
0.64 0.14 0
0.66 0.14 0
0.68 0.14 0
0.7 0.14 0
0.72 0.14 0
0.74 0.14 0
0.76 0.14 0
0.78 0.14 0
0.8 0.14 0
0.82 0.14 0
0.84 0.14 0
0.86 0.14 0
0.88 0.14 0
0.9 0.14 0
0.92 0.14 0
0.94 0.14 0
0.96 0.14 0
0.98 0.14 0
1 0.14 0
0 0.16 0
0.02 0.16 0
0.04 0.16 0
0.06 0.16 0
0.08 0.16 0
0.1 0.16 0
0.12 0.16 0
0.14 0.16 0
0.16 0.16 0
0.18 0.16 0
0.2 0.16 0
0.22 0.16 0
0.24 0.16 0
0.26 0.16 0
0.28 0.16 0
0.3 0.16 0
0.32 0.16 0
0.34 0.16 0
0.36 0.16 0
0.38 0.16 0
0.4 0.16 0
0.42 0.16 0
0.44 0.16 0
0.46 0.16 0
0.48 0.16 0
0.5 0.16 0
0.52 0.16 0
0.54 0.16 0
0.56 0.16 0
0.58 0.16 0
0.6 0.16 0
0.62 0.16 0
0.64 0.16 0
0.66 0.16 0
0.68 0.16 0
0.7 0.16 0
0.72 0.16 0
0.74 0.16 0
0.76 0.16 0
0.78 0.16 0
0.8 0.16 0
0.82 0.16 0
0.84 0.16 0
0.86 0.16 0
0.88 0.16 0
0.9 0.16 0
0.92 0.16 0
0.94 0.16 0
0.96 0.16 0
0.98 0.16 0
1 0.16 0
0 0.18 0
0.02 0.18 0
0.04 0.18 0
0.06 0.18 0
0.08 0.18 0
0.1 0.18 0
0.12 0.18 0
0.14 0.18 0
0.16 0.18 0
0.18 0.18 0
0.2 0.18 0
0.22 0.18 0
0.24 0.18 0
0.26 0.18 0
0.28 0.18 0
0.3 0.18 0
0.32 0.18 0
0.34 0.18 0
0.36 0.18 0
0.38 0.18 0
0.4 0.18 0
0.42 0.18 0
0.44 0.18 0
0.46 0.18 0
0.48 0.18 0
0.5 0.18 0
0.52 0.18 0
0.54 0.18 0
0.56 0.18 0
0.58 0.18 0
0.6 0.18 0
0.62 0.18 0
0.64 0.18 0
0.66 0.18 0
0.68 0.18 0
0.7 0.18 0
0.72 0.18 0
0.74 0.18 0
0.76 0.18 0
0.78 0.18 0
0.8 0.18 0
0.82 0.18 0
0.84 0.18 0
0.86 0.18 0
0.88 0.18 0
0.9 0.18 0
0.92 0.18 0
0.94 0.18 0
0.96 0.18 0
0.98 0.18 0
1 0.18 0
0 0.2 0
0.02 0.2 0
0.04 0.2 0
0.06 0.2 0
0.08 0.2 0
0.1 0.2 0
0.12 0.2 0
0.14 0.2 0
0.16 0.2 0
0.18 0.2 0
0.2 0.2 0
0.22 0.2 0
0.24 0.2 0
0.26 0.2 0
0.28 0.2 0
0.3 0.2 0
0.32 0.2 0
0.34 0.2 0
0.36 0.2 0
0.38 0.2 0
0.4 0.2 0
0.42 0.2 0
0.44 0.2 0
0.46 0.2 0
0.48 0.2 0
0.5 0.2 0
0.52 0.2 0
0.54 0.2 0
0.56 0.2 0
0.58 0.2 0
0.6 0.2 0
0.62 0.2 0
0.64 0.2 0
0.66 0.2 0
0.68 0.2 0
0.7 0.2 0
0.72 0.2 0
0.74 0.2 0
0.76 0.2 0
0.78 0.2 0
0.8 0.2 0
0.82 0.2 0
0.84 0.2 0
0.86 0.2 0
0.88 0.2 0
0.9 0.2 0
0.92 0.2 0
0.94 0.2 0
0.96 0.2 0
0.98 0.2 0
1 0.2 0
0 0.22 0
0.02 0.22 0
0.04 0.22 0
0.06 0.22 0
0.08 0.22 0
0.1 0.22 0
0.12 0.22 0
0.14 0.22 0
0.16 0.22 0
0.18 0.22 0
0.2 0.22 0
0.22 0.22 0
0.24 0.22 0
0.26 0.22 0
0.28 0.22 0
0.3 0.22 0
0.32 0.22 0
0.34 0.22 0
0.36 0.22 0
0.38 0.22 0
0.4 0.22 0
0.42 0.22 0
0.44 0.22 0
0.46 0.22 0
0.48 0.22 0
0.5 0.22 0
0.52 0.22 0
0.54 0.22 0
0.56 0.22 0
0.58 0.22 0
0.6 0.22 0
0.62 0.22 0
0.64 0.22 0
0.66 0.22 0
0.68 0.22 0
0.7 0.22 0
0.72 0.22 0
0.74 0.22 0
0.76 0.22 0
0.78 0.22 0
0.8 0.22 0
0.82 0.22 0
0.84 0.22 0
0.86 0.22 0
0.88 0.22 0
0.9 0.22 0
0.92 0.22 0
0.94 0.22 0
0.96 0.22 0
0.98 0.22 0
1 0.22 0
0 0.24 0
0.02 0.24 0
0.04 0.24 0
0.06 0.24 0
0.08 0.24 0
0.1 0.24 0
0.12 0.24 0
0.14 0.24 0
0.16 0.24 0
0.18 0.24 0
0.2 0.24 0
0.22 0.24 0
0.24 0.24 0
0.26 0.24 0
0.28 0.24 0
0.3 0.24 0
0.32 0.24 0
0.34 0.24 0
0.36 0.24 0
0.38 0.24 0
0.4 0.24 0
0.42 0.24 0
0.44 0.24 0
0.46 0.24 0
0.48 0.24 0
0.5 0.24 0
0.52 0.24 0
0.54 0.24 0
0.56 0.24 0
0.58 0.24 0
0.6 0.24 0
0.62 0.24 0
0.64 0.24 0
0.66 0.24 0
0.68 0.24 0
0.7 0.24 0
0.72 0.24 0
0.74 0.24 0
0.76 0.24 0
0.78 0.24 0
0.8 0.24 0
0.82 0.24 0
0.84 0.24 0
0.86 0.24 0
0.88 0.24 0
0.9 0.24 0
0.92 0.24 0
0.94 0.24 0
0.96 0.24 0
0.98 0.24 0
1 0.24 0
0 0.26 0
0.02 0.26 0
0.04 0.26 0
0.06 0.26 0
0.08 0.26 0
0.1 0.26 0
0.12 0.26 0
0.14 0.26 0
0.16 0.26 0
0.18 0.26 0
0.2 0.26 0
0.22 0.26 0
0.24 0.26 0
0.26 0.26 0
0.28 0.26 0
0.3 0.26 0
0.32 0.26 0
0.34 0.26 0
0.36 0.26 0
0.38 0.26 0
0.4 0.26 0
0.42 0.26 0
0.44 0.26 0
0.46 0.26 0
0.48 0.26 0
0.5 0.26 0
0.52 0.26 0
0.54 0.26 0
0.56 0.26 0
0.58 0.26 0
0.6 0.26 0
0.62 0.26 0
0.64 0.26 0
0.66 0.26 0
0.68 0.26 0
0.7 0.26 0
0.72 0.26 0
0.74 0.26 0
0.76 0.26 0
0.78 0.26 0
0.8 0.26 0
0.82 0.26 0
0.84 0.26 0
0.86 0.26 0
0.88 0.26 0
0.9 0.26 0
0.92 0.26 0
0.94 0.26 0
0.96 0.26 0
0.98 0.26 0
1 0.26 0
0 0.28 0
0.02 0.28 0
0.04 0.28 0
0.06 0.28 0
0.08 0.28 0
0.1 0.28 0
0.12 0.28 0
0.14 0.28 0
0.16 0.28 0
0.18 0.28 0
0.2 0.28 0
0.22 0.28 0
0.24 0.28 0
0.26 0.28 0
0.28 0.28 0
0.3 0.28 0
0.32 0.28 0
0.34 0.28 0
0.36 0.28 0
0.38 0.28 0
0.4 0.28 0
0.42 0.28 0
0.44 0.28 0
0.46 0.28 0
0.48 0.28 0
0.5 0.28 0
0.52 0.28 0
0.54 0.28 0
0.56 0.28 0
0.58 0.28 0
0.6 0.28 0
0.62 0.28 0
0.64 0.28 0
0.66 0.28 0
0.68 0.28 0
0.7 0.28 0
0.72 0.28 0
0.74 0.28 0
0.76 0.28 0
0.78 0.28 0
0.8 0.28 0
0.82 0.28 0
0.84 0.28 0
0.86 0.28 0
0.88 0.28 0
0.9 0.28 0
0.92 0.28 0
0.94 0.28 0
0.96 0.28 0
0.98 0.28 0
1 0.28 0
0 0.3 0
0.02 0.3 0
0.04 0.3 0
0.06 0.3 0
0.08 0.3 0
0.1 0.3 0
0.12 0.3 0
0.14 0.3 0
0.16 0.3 0
0.18 0.3 0
0.2 0.3 0
0.22 0.3 0
0.24 0.3 0
0.26 0.3 0
0.28 0.3 0
0.3 0.3 0
0.32 0.3 0
0.34 0.3 0
0.36 0.3 0
0.38 0.3 0
0.4 0.3 0
0.42 0.3 0
0.44 0.3 0
0.46 0.3 0
0.48 0.3 0
0.5 0.3 0
0.52 0.3 0
0.54 0.3 0
0.56 0.3 0
0.58 0.3 0
0.6 0.3 0
0.62 0.3 0
0.64 0.3 0
0.66 0.3 0
0.68 0.3 0
0.7 0.3 0
0.72 0.3 0
0.74 0.3 0
0.76 0.3 0
0.78 0.3 0
0.8 0.3 0
0.82 0.3 0
0.84 0.3 0
0.86 0.3 0
0.88 0.3 0
0.9 0.3 0
0.92 0.3 0
0.94 0.3 0
0.96 0.3 0
0.98 0.3 0
1 0.3 0
0 0.32 0
0.02 0.32 0
0.04 0.32 0
0.06 0.32 0
0.08 0.32 0
0.1 0.32 0
0.12 0.32 0
0.14 0.32 0
0.16 0.32 0
0.18 0.32 0
0.2 0.32 0
0.22 0.32 0
0.24 0.32 0
0.26 0.32 0
0.28 0.32 0
0.3 0.32 0
0.32 0.32 0
0.34 0.32 0
0.36 0.32 0
0.38 0.32 0
0.4 0.32 0
0.42 0.32 0
0.44 0.32 0
0.46 0.32 0
0.48 0.32 0
0.5 0.32 0
0.52 0.32 0
0.54 0.32 0
0.56 0.32 0
0.58 0.32 0
0.6 0.32 0
0.62 0.32 0
0.64 0.32 0
0.66 0.32 0
0.68 0.32 0
0.7 0.32 0
0.72 0.32 0
0.74 0.32 0
0.76 0.32 0
0.78 0.32 0
0.8 0.32 0
0.82 0.32 0
0.84 0.32 0
0.86 0.32 0
0.88 0.32 0
0.9 0.32 0
0.92 0.32 0
0.94 0.32 0
0.96 0.32 0
0.98 0.32 0
1 0.32 0
0 0.34 0
0.02 0.34 0
0.04 0.34 0
0.06 0.34 0
[...]
POINT_DATA 2601
SCALARS pressure float 1
LOOKUP_TABLE default
0.0269644
0.0269153
0.0267783
0.0265845
0.0263776
0.0261888
0.0260334
0.0259207
0.0258532
0.025832
0.0258568
0.0259279
0.0260456
0.0262111
0.0264256
0.0266904
0.0270067
0.0273746
0.0277937
0.0282621
0.0287764
0.0293315
0.0299205
0.0305344
0.0311626
0.0317926
0.0324109
0.0330036
0.0335565
0.0340568
0.034493
0.0348562
0.0351404
0.0353429
0.0354642
0.0355083
0.0354817
0.0353937
0.0352549
0.0350773
0.0348734
0.0346559
0.0344368
0.0342278
0.0340392
0.0338805
0.0337591
0.0336817
0.0336467
0.0336561
0.0336737
0.0270145
0.0269644
0.0268389
0.0266718
0.0264934
0.0263306
0.0261958
0.0260977
0.0260395
0.0260228
0.0260484
0.026117
0.0262296
0.0263874
0.0265921
0.0268448
0.0271466
0.0274979
0.0278979
0.0283449
0.0288355
0.0293648
0.0299263
0.0305115
0.0311102
0.0317109
0.0323009
0.0328671
0.0333965
0.0338767
0.0342973
0.0346497
0.0349284
0.0351305
0.0352567
0.0353104
0.0352978
0.0352272
0.0351087
0.0349533
0.0347726
0.0345785
0.0343822
0.0341942
0.0340241
0.0338805
0.0337698
0.0336981
0.0336635
0.0336718
0.0336895
0.0271581
0.027091
0.0269606
0.0268194
0.0266719
0.0265408
0.0264321
0.0263534
0.0263074
0.0262963
0.0263217
0.0263852
0.0264884
0.0266331
0.0268212
0.0270541
0.0273329
0.0276581
0.028029
0.028444
0.0289
0.0293925
0.0299154
0.0304609
0.0310198
0.0315815
0.0321343
0.0326663
0.0331654
0.0336204
0.0340213
0.0343604
0.0346323
0.0348343
0.0349668
0.0350329
0.035038
0.0349897
0.0348972
0.0347704
0.03462
0.0344564
0.0342898
0.0341296
0.0339839
0.0338604
0.0337639
0.0337004
0.0336676
0.033677
0.0336967
0.0273672
0.0272641
0.0270951
0.0269497
0.0268058
0.0266855
0.0265879
0.0265183
0.0264777
0.026468
0.0264905
0.0265473
0.0266404
0.0267721
0.0269446
0.0271598
0.0274191
0.0277232
0.0280717
0.0284634
0.0288954
0.0293637
0.0298627
0.0303851
0.0309221
0.0314637
0.0319987
0.0325152
0.0330016
0.0334467
0.0338406
0.0341755
0.0344459
0.0346491
0.0347853
0.0348575
0.034871
0.034833
0.0347526
0.0346393
0.0345032
0.0343545
0.0342024
0.0340559
0.0339224
0.0338088
0.0337196
0.0336605
0.0336295
0.033641
0.0336626
0.0275964
0.0274498
0.0272306
0.0270719
0.0269233
0.0268073
0.0267152
0.0266505
0.0266117
0.0266
0.0266168
0.0266641
0.0267446
0.026861
0.027016
0.0272119
0.0274505
0.0277328
0.0280589
0.0284278
0.0288373
0.0292837
0.029762
0.0302654
0.0307856
0.0313129
0.0318364
0.0323444
0.0328249
0.0332667
0.0336596
0.0339953
0.034268
0.034475
0.0346161
0.0346942
0.0347146
0.0346847
0.0346131
0.0345094
0.0343835
0.0342451
0.0341032
0.0339662
0.033841
0.0337339
0.0336489
0.0335917
0.0335605
0.03357
0.0335902
0.0278059
0.0276121
0.0273353
0.0271549
0.0269924
0.0268723
0.0267783
0.026712
0.0266696
0.0266516
0.026659
0.0266942
0.0267601
0.0268601
0.0269972
0.0271742
0.0273934
0.0276559
0.0279624
0.0283123
0.0287038
0.0291339
0.029598
0.03009
0.0306019
0.0311244
0.0316464
0.0321561
0.0326411
0.0330893
0.0334898
0.0338337
0.0341146
0.0343291
0.0344769
0.034561
0.0345866
0.0345613
0.034494
0.0343943
0.0342723
0.0341376
0.0339992
0.0338651
0.0337421
0.0336362
0.0335512
0.0334922
0.0334581
0.0334621
0.0334782
0.0279638
0.0277226
0.0273866
0.0271811
0.0270004
0.0268715
0.0267707
0.0266979
0.0266474
0.0266191
0.0266139
0.0266345
0.0266842
0.0267669
0.026886
0.0270447
0.0272453
0.0274897
0.0277785
0.0281116
0.0284879
0.0289049
0.0293589
0.0298442
0.0303535
0.0308777
0.0314056
0.031925
0.0324229
0.0328861
0.0333026
0.0336622
0.0339575
0.0341846
0.0343429
0.034435
0.0344667
0.0344455
0.0343807
0.0342825
0.0341609
0.034026
0.0338868
0.0337514
0.0336264
0.0335177
0.033429
0.0333652
0.0333255
0.0333209
0.0333311
0.0280404
0.0277528
0.0273581
0.0271258
0.0269241
0.0267825
0.0266705
0.0265869
0.0265241
0.0264821
0.0264617
0.0264661
0.0264991
0.0265648
0.026667
0.0268091
0.0269935
0.0272221
0.0274958
0.0278148
0.0281788
0.0285859
0.0290333
0.0295163
0.0300282
0.0305603
0.0311014
0.0316388
0.0321585
0.0326459
0.0330874
0.0334713
0.0337888
0.0340348
0.0342082
0.0343118
0.0343511
0.0343345
0.0342715
0.0341727
0.0340489
0.0339104
0.0337665
0.0336256
0.0334945
0.0333791
0.0332833
0.0332115
0.0331638
0.0331485
0.0331515
0.0280091
0.027677
0.0272255
0.0269664
0.0267424
0.0265858
0.0264596
0.0263619
0.026284
0.026226
0.0261893
0.0261774
0.0261947
0.0262455
0.0263337
0.0264624
0.0266339
0.0268498
0.0271111
0.0274184
0.0277719
0.028171
0.0286138
0.029097
0.0296149
0.0301596
0.0307197
0.0312822
0.0318322
0.032353
0.0328294
0.033247
0.0335951
0.0338674
0.034062
0.0341814
0.0342316
0.0342211
0.0341603
0.0340604
0.0339327
0.0337882
0.0336367
0.033487
0.0333463
0.0332208
0.0331147
0.0330321
0.0329742
0.0329465
0.0329418
0.0278445
0.02747
0.0269645
0.0266791
0.0264326
0.0262594
0.026117
0.026003
0.0259084
0.0258338
0.0257815
0.0257555
0.0257605
0.0258007
0.0258794
0.0259998
0.026163
0.0263702
0.0266224
0.0269202
0.0272646
0.0276563
0.0280952
0.0285797
0.0291056
0.0296662
0.03025
0.030844
0.0314325
0.0319963
0.0325178
0.0329797
0.033368
0.0336751
0.0338978
0.0340384
0.0341032
0.0341013
0.0340439
0.0339428
0.0338103
0.0336579
0.0334963
0.0333348
0.0331814
0.0330425
0.032923
0.032827
0.0327569
0.0327156
0.0327027
0.0275223
0.0271079
0.0265515
0.0262411
0.0259723
0.025782
0.0256224
0.0254914
0.0253804
0.0252911
0.0252269
0.0251925
0.0251921
0.0252297
0.0253074
0.0254276
0.0255897
0.025794
0.0260408
0.0263309
0.0266664
0.0270495
0.0274825
0.0279664
0.028499
0.0290762
0.029686
0.0303158
0.0309502
0.0315661
0.0321436
0.0326611
0.0331004
0.0334517
0.0337101
0.0338779
0.0339617
0.0339714
0.033919
0.0338173
0.0336794
0.0335178
0.033344
0.0331681
0.032999
0.0328436
0.0327078
0.0325956
0.0325112
0.0324551
0.0324336
0.027019
0.0265673
0.0259632
0.0256294
0.0253393
0.0251318
0.0249551
0.024808
0.0246831
0.0245835
0.024515
0.0244814
0.0244862
0.024532
0.0246186
0.0247483
0.0249172
0.0251246
0.0253699
0.0256537
0.0259794
0.0263515
0.0267752
0.0272554
0.0277928
0.0283867
0.0290233
0.0296916
0.0303787
0.0310555
0.0317006
0.0322865
0.0327882
0.033194
0.0334963
0.0336974
0.0338048
0.033829
0.0337836
0.0336819
0.0335385
0.0333665
0.0331785
0.0329858
0.032798
0.032623
0.0324678
0.0323368
0.0322358
0.0321634
0.0321327
0.0263118
0.0258255
0.0251776
0.0248223
0.024512
0.0242881
0.0240956
0.0239349
0.0238016
0.0237004
0.0236408
0.0236244
0.0236526
0.023726
0.0238403
0.0239984
0.0241898
0.0244114
0.0246615
0.0249402
0.0252532
0.0256074
0.0260127
0.0264789
0.0270107
0.0276145
0.0282714
0.0289746
0.0297179
0.0304625
0.0311866
0.0318549
0.0324314
0.0329025
0.0332568
0.033497
0.0336322
0.0336735
0.0336366
0.0335355
0.0333862
0.0332027
0.0329988
0.0327866
0.0325771
0.0323794
0.0322015
0.0320485
0.0319284
0.0318377
0.031797
0.025378
0.0248603
0.0241726
0.0237976
0.0234685
0.0232289
0.0230223
0.0228519
0.0227186
0.0226286
0.0225979
0.0226215
0.022695
0.0228143
0.022968
0.0231643
0.0233845
0.0236244
0.0238814
0.0241539
0.0244503
0.0247809
0.0251614
0.0256091
0.0261341
0.026753
0.0274303
0.0281652
0.0289701
0.0297882
0.0306036
0.0313712
0.0320354
0.032583
0.0329967
0.0332805
0.0334464
0.033506
0.0334783
0.0333778
0.033222
0.0330256
0.0328038
0.0325695
0.0323352
0.032111
0.0319068
0.0317282
0.0315859
0.0314743
0.0314224
0.0241963
0.0236509
0.0229283
0.0225358
0.0221894
0.0219353
0.0217174
0.021543
0.0214224
0.0213622
0.0213917
0.0214919
0.0216489
0.0218568
0.0220945
0.0223841
0.0226786
0.0229655
0.0232453
0.0235137
0.0237856
0.024075
0.0244056
0.0248034
0.0252864
0.025892
0.0265527
0.0272882
0.028151
0.0290426
0.0299606
0.0308486
0.0316138
0.0322488
0.0327278
0.0330566
0.0332536
0.0333302
0.0333108
0.0332092
0.0330456
0.0328346
0.0325925
0.0323332
0.0320706
0.031816
0.0315812
0.0313729
0.0312046
0.0310688
0.0310037
0.0227449
0.0221763
0.0214241
0.0210154
0.0206514
0.020381
0.0201521
0.0199769
0.0198839
0.0198771
0.0200158
0.020248
0.0205325
0.0208444
0.0211371
0.0214743
0.021794
0.0220957
0.0223794
0.0226292
0.0228669
0.0231093
0.0233921
0.0237561
0.024238
0.0249203
0.0256125
0.0263449
0.02728
0.0282409
0.0292732
0.0303126
0.0311921
0.0319241
0.0324708
0.0328405
0.0330647
0.0331527
0.0331376
0.0330314
0.0328574
0.0326291
0.0323642
0.0320766
0.0317818
0.0314923
0.0312221
0.030979
0.0307801
0.0306155
0.0305348
0.021005
0.0204196
0.0196454
0.0192225
0.0188413
0.0185537
0.0183155
0.0181454
0.018102
0.0181768
0.0184931
0.0189253
0.0193879
0.0198901
0.0203821
0.0210404
0.0216237
0.0220538
0.0224031
0.0226467
0.0228341
0.0229868
0.0231528
0.0233765
0.0237169
0.0242943
0.0247776
0.0253517
0.0263635
0.0273976
0.0285596
0.0298047
0.0308123
0.0316471
0.0322587
0.0326556
0.0328965
0.0329832
0.0329642
0.0328465
0.0326576
0.0324085
0.0321175
0.0317982
0.0314669
0.0311375
0.0308263
0.0305424
0.0303074
0.0301081
0.0300085
0.0189573
0.0183627
0.0175741
0.0171353
0.0167297
0.0164113
0.0161492
0.0159681
0.0159829
0.0161588
0.0167864
0.0176037
0.0184233
0.0191213
0.0194951
0.0198593
0.0201202
0.0204252
0.0207109
0.020884
0.0209972
0.021067
0.0211624
0.02136
0.0218281
0.0231182
0.0239862
0.024435
0.0255619
0.0265648
0.027851
0.0294001
0.0305441
0.0314763
0.0321407
0.0325342
0.0327709
0.0328335
0.0327961
0.0326557
0.0324455
0.032171
0.0318505
0.0314958
0.0311236
0.0307488
0.0303903
0.0300586
0.0297806
0.0295394
0.0294166
0.0165921
0.0159993
0.0152086
0.0147557
0.0143244
0.0139707
0.0136859
0.0134987
0.0136203
0.0139289
0.0150556
0.0163203
0.0171729
0.0179869
0.0188105
0.0210783
0.0229727
0.0235651
0.0240101
0.0241368
0.0241235
0.0239912
0.0238207
0.0236168
0.0238211
0.0240457
0.023053
0.0227109
0.024381
0.0257337
0.0271633
0.0292133
0.0305005
0.0314938
0.0321851
0.0325162
0.0327134
0.032715
0.0326372
0.0324576
0.0322171
0.0319119
0.0315589
0.0311657
0.0307487
0.030323
0.0299103
0.0295224
0.0291935
0.0289012
0.0287497
0.0139001
0.0133209
0.0125384
0.0120635
0.0115847
0.0111532
0.0107813
0.0104805
0.0106083
0.0108485
0.0127302
0.0151844
0.017895
0.0197511
0.0196834
0.0172466
0.0147523
0.0152368
0.0155778
0.0156146
0.0155118
0.0152887
0.0149893
0.014567
0.0143807
0.0211621
0.0250782
0.0232561
0.0246214
0.0246623
0.0263183
0.0294618
0.0308514
0.0318036
0.0324749
0.0326405
0.0327453
0.0326315
0.0324829
0.0322429
0.0319621
0.0316215
0.0312345
0.0308015
0.0303372
0.0298556
0.0293815
0.0289285
0.028539
0.0281846
0.0279974
0.0108943
0.0103442
0.00958735
0.00909499
0.00857194
0.00806911
0.00763898
0.00728385
0.00764092
0.00800536
0.0120384
0.0160736
0.0143247
0.0120691
0.0109121
0.00577918
0.00094917
0.000768588
0.000734407
0.000689745
0.000635565
0.000574149
0.000511303
0.000453525
0.000512558
0.00830534
0.0140562
0.0128726
0.020954
0.0259055
0.0260197
0.0304326
0.031982
0.032518
0.0331077
0.0329313
0.0328709
0.0325691
0.0323125
0.0319883
0.0316583
0.0312808
0.0308624
0.0303924
0.0298813
0.0293407
0.0287986
0.0282705
0.0278097
0.0273796
0.0271484
0.00759295
0.00708645
0.00636842
0.00585096
0.00525714
0.00462214
0.00400138
0.00328442
0.00322027
0.00168168
0.00492804
0.00939855
0.00500463
0.00102632
0.000634027
0.00034556
8.56919e-05
0
0
0
0
0
0
0
6.0132e-05
0.000190114
0.000270475
0.000367739
0.00823981
0.0141599
0.0222847
0.0341945
0.034296
0.0337353
0.0341186
0.0333529
0.0330432
0.0324737
0.0320729
0.0316452
0.0312636
0.0308557
0.0304167
0.0299199
0.0293683
0.0287696
0.0281549
0.0275417
0.0269976
0.0264759
0.0261905
0.00404003
0.00359172
0.00293007
0.00239709
0.0017473
0.00102309
0.000305988
-0.000492353
-0.000399421
-0.00255574
-0.00235505
0.000593573
0.000412406
0.000103921
0
0
0
0
0
0
0
0
0
0
0
0
0
4.83547e-05
0.000140666
0.000310457
0.00946231
0.0326372
0.0398003
0.0350183
0.0354713
0.0337648
0.0331416
0.0322353
0.0316667
0.0311305
0.0307087
0.0302911
0.0298557
0.0293546
0.028779
0.0281299
0.0274417
0.0267347
0.0260945
0.0254628
0.0251109
0.000295766
-8.00435e-05
-0.000664113
-0.00119142
-0.00186528
-0.00260163
-0.00330694
-0.00374857
-0.00327934
-0.00272907
-0.00145407
-7.11192e-05
0
0
0
0
0
0
0
0
0
0
0
0
0
0
0
0
0
4.65018e-05
0.00050261
0.0286373
0.0444424
0.0357214
0.0363766
0.0338055
0.0328771
0.0316516
0.0309297
0.030313
0.0298873
0.0295034
0.0291167
0.0286521
0.0280842
0.0274037
0.0266481
0.0258413
0.0250924
0.0243297
0.023897
-0.00358992
-0.00388324
-0.00438156
-0.00491153
-0.00564672
-0.00647306
-0.00740749
-0.00782941
-0.00846914
-0.00610809
-0.00150547
0
0
0
0
0
0
0
0
0
0
0
0
0
0
0
0
0
0
0
0.00042399
0.0297074
0.0454239
0.0357413
0.0362347
0.0331381
0.0319391
0.0304781
0.0296548
0.029021
0.0286569
0.0283786
0.0281118
0.0277494
0.027242
0.0265658
0.0257598
0.0248526
0.0239839
0.0230673
0.0225372
-0.00754368
-0.00774454
-0.00814349
-0.0086677
-0.00946102
-0.0103763
-0.0115569
-0.0119617
-0.0136363
-0.00977472
-0.00195535
0
0
0
0
0
0
0
0
0
0
0
0
0
0
0
0
0
0
0
0.000414757
0.0297413
0.0449932
0.0347108
0.034896
0.0314566
0.0300426
0.0284504
0.0276082
0.027051
0.0268439
0.0267727
0.0267275
0.0265625
0.026196
0.025582
0.0247588
0.0237597
0.0227634
0.0216684
0.0210221
-0.0114963
-0.0115983
-0.0118886
-0.0124027
-0.0132539
-0.0142782
-0.0157142
-0.0161851
-0.018554
-0.0128904
-0.00219591
0
0
0
0
0
0
0
0
0
0
0
0
0
0
0
0
0
0
0
0.000384679
0.0279484
0.042027
0.0319568
0.0318386
0.0283514
0.026849
0.0252812
0.0245402
0.0241839
0.0242562
0.0245209
0.0248281
0.0249873
0.0248736
0.0244084
0.0236228
0.0225535
0.021428
0.0201299
0.019347
-0.0153682
-0.0153682
-0.0155407
-0.0160326
-0.0169254
-0.0180748
-0.019788
-0.0205782
-0.0238741
-0.0167146
-0.00340334
-0.000447266
0
0
0
0
0
0
0
0
0
0
0
0
0
0
0
0
0
1.28214e-05
0.000344561
0.0245077
0.0366502
0.0273576
0.0268866
0.023604
0.0221421
0.0207605
0.0202517
0.0202301
0.0207153
0.0214592
0.0222699
0.0229071
0.0231898
0.0229917
0.0223258
0.0212265
0.0199796
0.0184553
0.0175138
-0.0190844
-0.0189864
-0.0190393
-0.0194982
-0.0204095
-0.0217191
-0.0237054
-0.0255709
-0.0291538
-0.0300225
-0.015955
-0.00275582
-0.0010368
-0.000288951
0
0
0
0
0
0
0
0
0
0
0
0
0
-2.54956e-05
-7.94858e-05
-7.67241e-05
0.00262128
0.0187992
0.0253359
0.0199897
0.0194652
0.0169445
0.0157519
0.0147586
0.0146232
0.0150666
0.0160916
0.0174536
0.0189229
0.0202064
0.0210543
0.0212736
0.0208405
0.0197749
0.018428
0.0166581
0.0155354
-0.022565
-0.0223802
-0.0223126
-0.0227001
-0.0235358
-0.0248474
-0.0267777
-0.0292373
-0.0321688
-0.0389829
-0.0344777
-0.0246881
-0.013626
-0.00204671
-0.00122419
-0.000713257
-0.000190589
0
0
0
0
0
0
0
-6.4105e-05
-0.000213728
-0.000323632
-0.000368154
-0.00444966
-0.00846748
-0.00293954
0.00751452
0.0107343
0.0101254
0.0100343
0.00857578
0.00783952
0.00736814
0.00770432
0.00869945
0.0103537
0.0124407
0.0147023
0.0167941
0.0183869
0.0191987
0.0191428
0.0182019
0.016794
0.0147657
0.0134397
-0.0257479
-0.0254948
-0.0253129
-0.0255819
-0.026233
-0.0273094
-0.0288366
-0.0307741
-0.0329495
-0.0362338
-0.03883
-0.0408058
-0.0337382
-0.0233684
-0.0225422
-0.0127089
-0.00155954
-0.00116288
-0.0010946
-0.00102607
-0.000951646
-0.000869976
-0.000784615
-0.000699036
-0.000709158
-0.00899116
-0.0169084
-0.0170954
-0.0183606
-0.017967
-0.0122067
-0.00404936
-0.00064378
-2.10425e-06
9.95047e-05
-0.000710006
-0.00106592
-0.00106199
-0.000258965
0.00129413
0.00360122
0.00646204
0.00960182
0.0126316
0.0151378
0.0167277
0.0172193
0.0165234
0.0151151
0.0128252
0.0112755
-0.0286117
-0.0283165
-0.0280453
-0.0281841
-0.0286174
-0.0293914
-0.0304732
-0.0318447
-0.0332548
-0.0351435
-0.0358748
-0.0363476
-0.0386916
-0.0384348
-0.0391426
-0.0329666
-0.0241723
-0.0240799
-0.0242473
-0.0242159
-0.0241567
-0.0240327
-0.0238224
-0.0232704
-0.0225559
-0.0276316
-0.0312886
-0.0296226
-0.0256447
-0.0200542
-0.016006
-0.011782
-0.00998921
-0.0096027
-0.00973431
-0.0102948
-0.0104371
-0.0100851
-0.00889461
-0.00684808
-0.00393361
-0.000319556
0.00371823
0.00775984
0.0113115
0.0138554
0.0150792
0.0147754
0.0134518
0.0109099
0.00911905
-0.0311616
-0.0308529
-0.0305253
-0.0305391
-0.0307522
-0.0312077
-0.0318594
-0.0327042
-0.033575
-0.0346573
-0.0353087
-0.0355708
-0.0354197
-0.0344705
-0.0352426
-0.0376177
-0.03825
-0.0378566
-0.0378339
-0.0376961
-0.0375919
-0.0374398
-0.0372254
-0.0366556
-0.036037
-0.0333049
-0.0290791
-0.0267854
-0.0247705
-0.0226659
-0.020752
-0.0188641
-0.0183242
-0.0185492
-0.0190688
-0.0196525
-0.0197458
-0.0192014
-0.0177467
-0.0153223
-0.0119038
-0.00762261
-0.00273826
0.00231869
0.00699021
0.0106307
0.0127684
0.0130239
0.011895
0.00912649
0.00708173
-0.0334297
-0.033135
-0.0327878
-0.0326962
-0.0327107
-0.0328694
-0.0331346
-0.0335184
-0.0339264
-0.0344519
-0.034797
-0.0350108
-0.0352799
-0.0349807
-0.0348944
-0.0343661
-0.0331811
-0.0326377
-0.0323227
-0.032053
-0.0318181
-0.0315486
-0.0312454
-0.0308133
-0.0304278
-0.0301258
-0.029255
-0.0282184
-0.0269871
-0.0258302
-0.0252191
-0.0249738
-0.0255634
-0.0265282
-0.0275381
-0.0283297
-0.0285159
-0.0279265
-0.0263415
-0.0236759
-0.0198898
-0.0150739
-0.00945439
-0.00344833
0.00234837
0.00717572
0.0103863
0.0113764
0.0105756
0.0076237
0.00531814
-0.0354622
-0.0352063
-0.0348749
-0.034703
-0.0345506
-0.0344504
-0.0343846
-0.0343843
-0.0344161
-0.034537
-0.0346158
-0.0346374
-0.034665
-0.034497
-0.0345547
-0.0346597
-0.0344357
-0.0342113
-0.0339877
-0.0337347
-0.0334644
-0.0331382
-0.032747
-0.0322147
-0.0315858
-0.0307604
-0.0297338
-0.0290316
-0.0286162
-0.0286229
-0.0292007
-0.0302105
-0.0317421
-0.0334059
-0.0349129
-0.0359997
-0.0363688
-0.0358454
-0.0342452
-0.0314667
-0.0274528
-0.0222516
-0.0160432
-0.00920725
-0.00234496
0.00369784
0.00810081
0.00999528
0.00967426
0.00660136
0.00403497
-0.0373139
-0.0371181
-0.0368338
-0.0366067
-0.0363195
-0.0359995
-0.0356542
-0.0353346
-0.0350537
-0.034862
-0.0347099
-0.0345795
-0.0344916
-0.0343039
-0.0341618
-0.0339624
-0.0336098
-0.0332994
-0.0329916
-0.032675
-0.032345
-0.0319811
-0.0315868
-0.0311457
-0.0307117
-0.0303151
-0.0299629
-0.0299161
-0.0302581
-0.0311329
-0.0326109
-0.0345407
-0.0368156
-0.0390757
-0.0410366
-0.042439
-0.043032
-0.0426421
-0.0411061
-0.0383123
-0.0341862
-0.028735
-0.0220859
-0.0145623
-0.00673852
0.00049269
0.00616023
0.00911003
0.00943243
0.00632019
0.00350059
-0.0390428
-0.0389258
-0.0387156
-0.0384539
-0.0380585
-0.037552
-0.0369699
-0.0363831
-0.0358392
-0.035392
-0.0350318
-0.0347431
-0.0345247
-0.0342981
-0.0341163
-0.0339226
-0.0336489
-0.033359
-0.0330365
-0.032684
-0.0323029
-0.0318896
-0.0314561
-0.031014
-0.0306224
-0.0303549
-0.0303065
-0.0306924
-0.0316125
-0.033159
-0.035322
-0.0379256
-0.0407662
-0.0435011
-0.0458431
-0.0475354
-0.0483506
-0.0481167
-0.0466808
-0.0439241
-0.0397567
-0.0341493
-0.0271757
-0.0190932
-0.0104231
-0.00206413
0.00489855
0.00902952
0.0101642
0.00711277
0.0040561
-0.0407089
-0.0406886
-0.0405755
-0.0402925
-0.0398061
-0.0391351
-0.038347
-0.0375318
-0.0367641
-0.0361036
-0.0355609
-0.0351229
-0.0347744
-0.034456
-0.0341698
-0.0338744
-0.0335332
-0.03317
-0.0327729
-0.0323458
-0.0318935
-0.0314248
-0.0309647
-0.0305503
-0.0302557
-0.0301804
-0.0304414
-0.0312114
-0.032591
-0.0346369
-0.037295
-0.0403724
-0.0436202
-0.0467076
-0.049344
-0.0512731
-0.0522768
-0.0521817
-0.0508381
-0.048121
-0.0439268
-0.038196
-0.0309543
-0.0223917
-0.0129619
-0.00353393
0.00473436
0.0101519
0.0122694
0.00939714
0.00612976
-0.0423746
-0.0424703
-0.0424749
-0.0421746
-0.0416011
-0.0407734
-0.0397956
-0.0387773
-0.0378146
-0.0369729
-0.0362714
-0.0356982
-0.0352297
-0.0348167
-0.0344383
-0.0340576
-0.0336439
-0.0331979
-0.0327112
-0.0321891
-0.0316425
-0.0310915
-0.0305741
-0.0301465
-0.0298971
-0.0299413
-0.0304098
-0.0314522
-0.0331569
-0.0355484
-0.0385413
-0.0419315
-0.0454506
-0.0487771
-0.0516184
-0.0537156
-0.0548512
-0.0548465
-0.0535488
-0.0508249
-0.046559
-0.0406664
-0.0331338
-0.0240899
-0.0139189
-0.00343592
0.00616436
0.0129738
0.0162505
0.013696
0.0102586
-0.0441099
-0.0443454
-0.0444867
-0.0441591
-0.0434851
-0.0424892
-0.041321
-0.0401105
-0.0389713
-0.0379715
-0.0371319
-0.0364371
-0.0358554
-0.0353387
-0.0348533
-0.0343628
-0.0338395
-0.0332759
-0.0326664
-0.032019
-0.0313515
-0.0306949
-0.0300998
-0.0296379
-0.029409
-0.0295362
-0.0301515
-0.0313843
-0.0333077
-0.0359211
-0.0391202
-0.0426955
-0.0463723
-0.0498367
-0.0527949
-0.0549837
-0.0561797
-0.0561939
-0.0548641
-0.0520438
-0.0476035
-0.0414382
-0.0335039
-0.0238775
-0.0128821
-0.00126817
0.00975351
0.0180992
0.0227344
0.0206664