# vtk DataFile Version 2.0
insac_ib
ASCII
DATASET STRUCTURED_GRID
DIMENSIONS 101 101 1
POINTS 10201 float
0 0 0
0.01 0 0
0.02 0 0
0.03 0 0
0.04 0 0
0.05 0 0
0.06 0 0
0.07 0 0
0.08 0 0
0.09 0 0
0.1 0 0
0.11 0 0
0.12 0 0
0.13 0 0
0.14 0 0
0.15 0 0
0.16 0 0
0.17 0 0
0.18 0 0
0.19 0 0
0.2 0 0
0.21 0 0
0.22 0 0
0.23 0 0
0.24 0 0
0.25 0 0
0.26 0 0
0.27 0 0
0.28 0 0
0.29 0 0
0.3 0 0
0.31 0 0
0.32 0 0
0.33 0 0
0.34 0 0
0.35 0 0
0.36 0 0
0.37 0 0
0.38 0 0
0.39 0 0
0.4 0 0
0.41 0 0
0.42 0 0
0.43 0 0
0.44 0 0
0.45 0 0
0.46 0 0
0.47 0 0
0.48 0 0
0.49 0 0
0.5 0 0
0.51 0 0
0.52 0 0
0.53 0 0
0.54 0 0
0.55 0 0
0.56 0 0
0.57 0 0
0.58 0 0
0.59 0 0
0.6 0 0
0.61 0 0
0.62 0 0
0.63 0 0
0.64 0 0
0.65 0 0
0.66 0 0
0.67 0 0
0.68 0 0
0.69 0 0
0.7 0 0
0.71 0 0
0.72 0 0
0.73 0 0
0.74 0 0
0.75 0 0
0.76 0 0
0.77 0 0
0.78 0 0
0.79 0 0
0.8 0 0
0.81 0 0
0.82 0 0
0.83 0 0
0.84 0 0
0.85 0 0
0.86 0 0
0.87 0 0
0.88 0 0
0.89 0 0
0.9 0 0
0.91 0 0
0.92 0 0
0.93 0 0
0.94 0 0
0.95 0 0
0.96 0 0
0.97 0 0
0.98 0 0
0.99 0 0
1 0 0
0 0.01 0
0.01 0.01 0
0.02 0.01 0
0.03 0.01 0
0.04 0.01 0
0.05 0.01 0
0.06 0.01 0
0.07 0.01 0
0.08 0.01 0
0.09 0.01 0
0.1 0.01 0
0.11 0.01 0
0.12 0.01 0
0.13 0.01 0
0.14 0.01 0
0.15 0.01 0
0.16 0.01 0
0.17 0.01 0
0.18 0.01 0
0.19 0.01 0
0.2 0.01 0
0.21 0.01 0
0.22 0.01 0
0.23 0.01 0
0.24 0.01 0
0.25 0.01 0
0.26 0.01 0
0.27 0.01 0
0.28 0.01 0
0.29 0.01 0
0.3 0.01 0
0.31 0.01 0
0.32 0.01 0
0.33 0.01 0
0.34 0.01 0
0.35 0.01 0
0.36 0.01 0
0.37 0.01 0
0.38 0.01 0
0.39 0.01 0
0.4 0.01 0
0.41 0.01 0
0.42 0.01 0
0.43 0.01 0
0.44 0.01 0
0.45 0.01 0
0.46 0.01 0
0.47 0.01 0
0.48 0.01 0
0.49 0.01 0
0.5 0.01 0
0.51 0.01 0
0.52 0.01 0
0.53 0.01 0
0.54 0.01 0
0.55 0.01 0
0.56 0.01 0
0.57 0.01 0
0.58 0.01 0
0.59 0.01 0
0.6 0.01 0
0.61 0.01 0
0.62 0.01 0
0.63 0.01 0
0.64 0.01 0
0.65 0.01 0
0.66 0.01 0
0.67 0.01 0
0.68 0.01 0
0.69 0.01 0
0.7 0.01 0
0.71 0.01 0
0.72 0.01 0
0.73 0.01 0
0.74 0.01 0
0.75 0.01 0
0.76 0.01 0
0.77 0.01 0
0.78 0.01 0
0.79 0.01 0
0.8 0.01 0
0.81 0.01 0
0.82 0.01 0
0.83 0.01 0
0.84 0.01 0
0.85 0.01 0
0.86 0.01 0
0.87 0.01 0
0.88 0.01 0
0.89 0.01 0
0.9 0.01 0
0.91 0.01 0
0.92 0.01 0
0.93 0.01 0
0.94 0.01 0
0.95 0.01 0
0.96 0.01 0
0.97 0.01 0
0.98 0.01 0
0.99 0.01 0
1 0.01 0
0 0.02 0
0.01 0.02 0
0.02 0.02 0
0.03 0.02 0
0.04 0.02 0
0.05 0.02 0
0.06 0.02 0
0.07 0.02 0
0.08 0.02 0
0.09 0.02 0
0.1 0.02 0
0.11 0.02 0
0.12 0.02 0
0.13 0.02 0
0.14 0.02 0
0.15 0.02 0
0.16 0.02 0
0.17 0.02 0
0.18 0.02 0
0.19 0.02 0
0.2 0.02 0
0.21 0.02 0
0.22 0.02 0
0.23 0.02 0
0.24 0.02 0
0.25 0.02 0
0.26 0.02 0
0.27 0.02 0
0.28 0.02 0
0.29 0.02 0
0.3 0.02 0
0.31 0.02 0
0.32 0.02 0
0.33 0.02 0
0.34 0.02 0
0.35 0.02 0
0.36 0.02 0
0.37 0.02 0
0.38 0.02 0
0.39 0.02 0
0.4 0.02 0
0.41 0.02 0
0.42 0.02 0
0.43 0.02 0
0.44 0.02 0
0.45 0.02 0
0.46 0.02 0
0.47 0.02 0
0.48 0.02 0
0.49 0.02 0
0.5 0.02 0
0.51 0.02 0
0.52 0.02 0
0.53 0.02 0
0.54 0.02 0
0.55 0.02 0
0.56 0.02 0
0.57 0.02 0
0.58 0.02 0
0.59 0.02 0
0.6 0.02 0
0.61 0.02 0
0.62 0.02 0
0.63 0.02 0
0.64 0.02 0
0.65 0.02 0
0.66 0.02 0
0.67 0.02 0
0.68 0.02 0
0.69 0.02 0
0.7 0.02 0
0.71 0.02 0
0.72 0.02 0
0.73 0.02 0
0.74 0.02 0
0.75 0.02 0
0.76 0.02 0
0.77 0.02 0
0.78 0.02 0
0.79 0.02 0
0.8 0.02 0
0.81 0.02 0
0.82 0.02 0
0.83 0.02 0
0.84 0.02 0
0.85 0.02 0
0.86 0.02 0
0.87 0.02 0
0.88 0.02 0
0.89 0.02 0
0.9 0.02 0
0.91 0.02 0
0.92 0.02 0
0.93 0.02 0
0.94 0.02 0
0.95 0.02 0
0.96 0.02 0
0.97 0.02 0
0.98 0.02 0
0.99 0.02 0
1 0.02 0
0 0.03 0
0.01 0.03 0
0.02 0.03 0
0.03 0.03 0
0.04 0.03 0
0.05 0.03 0
0.06 0.03 0
0.07 0.03 0
0.08 0.03 0
0.09 0.03 0
0.1 0.03 0
0.11 0.03 0
0.12 0.03 0
0.13 0.03 0
0.14 0.03 0
0.15 0.03 0
0.16 0.03 0
0.17 0.03 0
0.18 0.03 0
0.19 0.03 0
0.2 0.03 0
0.21 0.03 0
0.22 0.03 0
0.23 0.03 0
0.24 0.03 0
0.25 0.03 0
0.26 0.03 0
0.27 0.03 0
0.28 0.03 0
0.29 0.03 0
0.3 0.03 0
0.31 0.03 0
0.32 0.03 0
0.33 0.03 0
0.34 0.03 0
0.35 0.03 0
0.36 0.03 0
0.37 0.03 0
0.38 0.03 0
0.39 0.03 0
0.4 0.03 0
0.41 0.03 0
0.42 0.03 0
0.43 0.03 0
0.44 0.03 0
0.45 0.03 0
0.46 0.03 0
0.47 0.03 0
0.48 0.03 0
0.49 0.03 0
0.5 0.03 0
0.51 0.03 0
0.52 0.03 0
0.53 0.03 0
0.54 0.03 0
0.55 0.03 0
0.56 0.03 0
0.57 0.03 0
0.58 0.03 0
0.59 0.03 0
0.6 0.03 0
0.61 0.03 0
0.62 0.03 0
0.63 0.03 0
0.64 0.03 0
0.65 0.03 0
0.66 0.03 0
0.67 0.03 0
0.68 0.03 0
0.69 0.03 0
0.7 0.03 0
0.71 0.03 0
0.72 0.03 0
0.73 0.03 0
0.74 0.03 0
0.75 0.03 0
0.76 0.03 0
0.77 0.03 0
0.78 0.03 0
0.79 0.03 0
0.8 0.03 0
0.81 0.03 0
0.82 0.03 0
0.83 0.03 0
0.84 0.03 0
0.85 0.03 0
0.86 0.03 0
0.87 0.03 0
0.88 0.03 0
0.89 0.03 0
0.9 0.03 0
0.91 0.03 0
0.92 0.03 0
0.93 0.03 0
0.94 0.03 0
0.95 0.03 0
0.96 0.03 0
0.97 0.03 0
0.98 0.03 0
0.99 0.03 0
1 0.03 0
0 0.04 0
0.01 0.04 0
0.02 0.04 0
0.03 0.04 0
0.04 0.04 0
0.05 0.04 0
0.06 0.04 0
0.07 0.04 0
0.08 0.04 0
0.09 0.04 0
0.1 0.04 0
0.11 0.04 0
0.12 0.04 0
0.13 0.04 0
0.14 0.04 0
0.15 0.04 0
0.16 0.04 0
0.17 0.04 0
0.18 0.04 0
0.19 0.04 0
0.2 0.04 0
0.21 0.04 0
0.22 0.04 0
0.23 0.04 0
0.24 0.04 0
0.25 0.04 0
0.26 0.04 0
0.27 0.04 0
0.28 0.04 0
0.29 0.04 0
0.3 0.04 0
0.31 0.04 0
0.32 0.04 0
0.33 0.04 0
0.34 0.04 0
0.35 0.04 0
0.36 0.04 0
0.37 0.04 0
0.38 0.04 0
0.39 0.04 0
0.4 0.04 0
0.41 0.04 0
0.42 0.04 0
0.43 0.04 0
0.44 0.04 0
0.45 0.04 0
0.46 0.04 0
0.47 0.04 0
0.48 0.04 0
0.49 0.04 0
0.5 0.04 0
0.51 0.04 0
0.52 0.04 0
0.53 0.04 0
0.54 0.04 0
0.55 0.04 0
0.56 0.04 0
0.57 0.04 0
0.58 0.04 0
0.59 0.04 0
0.6 0.04 0
0.61 0.04 0
0.62 0.04 0
0.63 0.04 0
0.64 0.04 0
0.65 0.04 0
0.66 0.04 0
0.67 0.04 0
0.68 0.04 0
0.69 0.04 0
0.7 0.04 0
0.71 0.04 0
0.72 0.04 0
0.73 0.04 0
0.74 0.04 0
0.75 0.04 0
0.76 0.04 0
0.77 0.04 0
0.78 0.04 0
0.79 0.04 0
0.8 0.04 0
0.81 0.04 0
0.82 0.04 0
0.83 0.04 0
0.84 0.04 0
0.85 0.04 0
0.86 0.04 0
0.87 0.04 0
0.88 0.04 0
0.89 0.04 0
0.9 0.04 0
0.91 0.04 0
0.92 0.04 0
0.93 0.04 0
0.94 0.04 0
0.95 0.04 0
0.96 0.04 0
0.97 0.04 0
0.98 0.04 0
0.99 0.04 0
1 0.04 0
0 0.05 0
0.01 0.05 0
0.02 0.05 0
0.03 0.05 0
0.04 0.05 0
0.05 0.05 0
0.06 0.05 0
0.07 0.05 0
0.08 0.05 0
0.09 0.05 0
0.1 0.05 0
0.11 0.05 0
0.12 0.05 0
0.13 0.05 0
0.14 0.05 0
0.15 0.05 0
0.16 0.05 0
0.17 0.05 0
0.18 0.05 0
0.19 0.05 0
0.2 0.05 0
0.21 0.05 0
0.22 0.05 0
0.23 0.05 0
0.24 0.05 0
0.25 0.05 0
0.26 0.05 0
0.27 0.05 0
0.28 0.05 0
0.29 0.05 0
0.3 0.05 0
0.31 0.05 0
0.32 0.05 0
0.33 0.05 0
0.34 0.05 0
0.35 0.05 0
0.36 0.05 0
0.37 0.05 0
0.38 0.05 0
0.39 0.05 0
0.4 0.05 0
0.41 0.05 0
0.42 0.05 0
0.43 0.05 0
0.44 0.05 0
0.45 0.05 0
0.46 0.05 0
0.47 0.05 0
0.48 0.05 0
0.49 0.05 0
0.5 0.05 0
0.51 0.05 0
0.52 0.05 0
0.53 0.05 0
0.54 0.05 0
0.55 0.05 0
0.56 0.05 0
0.57 0.05 0
0.58 0.05 0
0.59 0.05 0
0.6 0.05 0
0.61 0.05 0
0.62 0.05 0
0.63 0.05 0
0.64 0.05 0
0.65 0.05 0
0.66 0.05 0
0.67 0.05 0
0.68 0.05 0
0.69 0.05 0
0.7 0.05 0
0.71 0.05 0
0.72 0.05 0
0.73 0.05 0
0.74 0.05 0
0.75 0.05 0
0.76 0.05 0
0.77 0.05 0
0.78 0.05 0
0.79 0.05 0
0.8 0.05 0
0.81 0.05 0
0.82 0.05 0
0.83 0.05 0
0.84 0.05 0
0.85 0.05 0
0.86 0.05 0
0.87 0.05 0
0.88 0.05 0
0.89 0.05 0
0.9 0.05 0
0.91 0.05 0
0.92 0.05 0
0.93 0.05 0
0.94 0.05 0
0.95 0.05 0
0.96 0.05 0
0.97 0.05 0
0.98 0.05 0
0.99 0.05 0
1 0.05 0
0 0.06 0
0.01 0.06 0
0.02 0.06 0
0.03 0.06 0
0.04 0.06 0
0.05 0.06 0
0.06 0.06 0
0.07 0.06 0
0.08 0.06 0
0.09 0.06 0
0.1 0.06 0
0.11 0.06 0
0.12 0.06 0
0.13 0.06 0
0.14 0.06 0
0.15 0.06 0
0.16 0.06 0
0.17 0.06 0
0.18 0.06 0
0.19 0.06 0
0.2 0.06 0
0.21 0.06 0
0.22 0.06 0
0.23 0.06 0
0.24 0.06 0
0.25 0.06 0
0.26 0.06 0
0.27 0.06 0
0.28 0.06 0
0.29 0.06 0
0.3 0.06 0
0.31 0.06 0
0.32 0.06 0
0.33 0.06 0
0.34 0.06 0
0.35 0.06 0
0.36 0.06 0
0.37 0.06 0
0.38 0.06 0
0.39 0.06 0
0.4 0.06 0
0.41 0.06 0
0.42 0.06 0
0.43 0.06 0
0.44 0.06 0
0.45 0.06 0
0.46 0.06 0
0.47 0.06 0
0.48 0.06 0
0.49 0.06 0
0.5 0.06 0
0.51 0.06 0
0.52 0.06 0
0.53 0.06 0
0.54 0.06 0
0.55 0.06 0
0.56 0.06 0
0.57 0.06 0
0.58 0.06 0
0.59 0.06 0
0.6 0.06 0
0.61 0.06 0
0.62 0.06 0
0.63 0.06 0
0.64 0.06 0
0.65 0.06 0
0.66 0.06 0
0.67 0.06 0
0.68 0.06 0
0.69 0.06 0
0.7 0.06 0
0.71 0.06 0
0.72 0.06 0
0.73 0.06 0
0.74 0.06 0
0.75 0.06 0
0.76 0.06 0
0.77 0.06 0
0.78 0.06 0
0.79 0.06 0
0.8 0.06 0
0.81 0.06 0
0.82 0.06 0
0.83 0.06 0
0.84 0.06 0
0.85 0.06 0
0.86 0.06 0
0.87 0.06 0
0.88 0.06 0
0.89 0.06 0
0.9 0.06 0
0.91 0.06 0
0.92 0.06 0
0.93 0.06 0
0.94 0.06 0
0.95 0.06 0
0.96 0.06 0
0.97 0.06 0
0.98 0.06 0
0.99 0.06 0
1 0.06 0
0 0.07 0
0.01 0.07 0
0.02 0.07 0
0.03 0.07 0
0.04 0.07 0
0.05 0.07 0
0.06 0.07 0
0.07 0.07 0
0.08 0.07 0
0.09 0.07 0
0.1 0.07 0
0.11 0.07 0
0.12 0.07 0
0.13 0.07 0
0.14 0.07 0
0.15 0.07 0
0.16 0.07 0
0.17 0.07 0
0.18 0.07 0
0.19 0.07 0
0.2 0.07 0
0.21 0.07 0
0.22 0.07 0
0.23 0.07 0
0.24 0.07 0
0.25 0.07 0
0.26 0.07 0
0.27 0.07 0
0.28 0.07 0
0.29 0.07 0
0.3 0.07 0
0.31 0.07 0
0.32 0.07 0
0.33 0.07 0
0.34 0.07 0
0.35 0.07 0
0.36 0.07 0
0.37 0.07 0
0.38 0.07 0
0.39 0.07 0
0.4 0.07 0
0.41 0.07 0
0.42 0.07 0
0.43 0.07 0
0.44 0.07 0
0.45 0.07 0
0.46 0.07 0
0.47 0.07 0
0.48 0.07 0
0.49 0.07 0
0.5 0.07 0
0.51 0.07 0
0.52 0.07 0
0.53 0.07 0
0.54 0.07 0
0.55 0.07 0
0.56 0.07 0
0.57 0.07 0
0.58 0.07 0
0.59 0.07 0
0.6 0.07 0
0.61 0.07 0
0.62 0.07 0
0.63 0.07 0
0.64 0.07 0
0.65 0.07 0
0.66 0.07 0
0.67 0.07 0
0.68 0.07 0
0.69 0.07 0
0.7 0.07 0
0.71 0.07 0
0.72 0.07 0
0.73 0.07 0
0.74 0.07 0
0.75 0.07 0
0.76 0.07 0
0.77 0.07 0
0.78 0.07 0
0.79 0.07 0
0.8 0.07 0
0.81 0.07 0
0.82 0.07 0
0.83 0.07 0
0.84 0.07 0
0.85 0.07 0
0.86 0.07 0
0.87 0.07 0
0.88 0.07 0
0.89 0.07 0
0.9 0.07 0
0.91 0.07 0
0.92 0.07 0
0.93 0.07 0
0.94 0.07 0
0.95 0.07 0
0.96 0.07 0
0.97 0.07 0
0.98 0.07 0
0.99 0.07 0
1 0.07 0
0 0.08 0
0.01 0.08 0
0.02 0.08 0
0.03 0.08 0
0.04 0.08 0
0.05 0.08 0
0.06 0.08 0
0.07 0.08 0
0.08 0.08 0
0.09 0.08 0
0.1 0.08 0
0.11 0.08 0
0.12 0.08 0
0.13 0.08 0
0.14 0.08 0
0.15 0.08 0
0.16 0.08 0
0.17 0.08 0
0.18 0.08 0
0.19 0.08 0
0.2 0.08 0
0.21 0.08 0
0.22 0.08 0
0.23 0.08 0
0.24 0.08 0
0.25 0.08 0
0.26 0.08 0
0.27 0.08 0
0.28 0.08 0
0.29 0.08 0
0.3 0.08 0
0.31 0.08 0
0.32 0.08 0
0.33 0.08 0
0.34 0.08 0
0.35 0.08 0
0.36 0.08 0
0.37 0.08 0
0.38 0.08 0
0.39 0.08 0
0.4 0.08 0
0.41 0.08 0
0.42 0.08 0
0.43 0.08 0
0.44 0.08 0
0.45 0.08 0
0.46 0.08 0
0.47 0.08 0
0.48 0.08 0
0.49 0.08 0
0.5 0.08 0
0.51 0.08 0
[...]
POINT_DATA 10201
SCALARS pressure float 1
LOOKUP_TABLE default
0.0299105
0.0299099
0.0298878
0.0298302
0.0297471
0.0296465
0.0295366
0.0294238
0.0293129
0.0292078
0.0291111
0.0290246
0.0289496
0.0288869
0.0288367
0.0287994
0.0287749
0.0287633
0.0287644
0.0287784
0.028805
0.0288445
0.0288967
0.0289619
0.0290402
0.0291316
0.0292364
0.0293548
0.0294868
0.0296326
0.0297922
0.0299657
0.0301529
0.0303539
0.0305683
0.0307959
0.0310362
0.0312887
0.0315529
0.0318278
0.0321127
0.0324065
0.0327081
0.0330163
0.0333297
0.0336468
0.0339662
0.0342861
0.0346049
0.0349208
0.035232
0.0355368
0.0358333
0.0361199
0.0363949
0.0366566
0.0369036
0.0371347
0.0373484
0.0375439
0.0377203
0.0378769
0.0380133
0.0381293
0.0382247
0.0382998
0.0383548
0.0383904
0.0384072
0.0384062
0.0383883
0.0383547
0.0383067
0.0382455
0.0381727
0.0380897
0.0379981
0.0378993
0.0377948
0.0376863
0.0375752
0.037463
0.0373511
0.0372408
0.0371336
0.0370306
0.0369331
0.0368421
0.0367587
0.0366839
0.0366185
0.0365633
0.036519
0.036486
0.0364646
0.0364547
0.0364557
0.0364659
0.0364823
0.0365008
0.0365101
0.0299176
0.0299164
0.0298953
0.0298423
0.0297668
0.0296755
0.0295754
0.029472
0.0293701
0.0292729
0.0291831
0.0291025
0.0290324
0.0289736
0.0289265
0.0288915
0.0288687
0.0288581
0.0288598
0.0288738
0.0289002
0.0289389
0.0289901
0.0290539
0.0291305
0.0292199
0.0293225
0.0294382
0.0295673
0.0297099
0.029866
0.0300356
0.0302187
0.0304152
0.0306248
0.0308472
0.0310821
0.0313289
0.031587
0.0318556
0.0321338
0.0324208
0.0327154
0.0330164
0.0333225
0.0336323
0.0339442
0.0342567
0.0345681
0.0348767
0.0351808
0.0354788
0.0357688
0.0360491
0.0363183
0.0365747
0.0368169
0.0370436
0.0372537
0.0374462
0.0376201
0.037775
0.0379103
0.0380258
0.0381214
0.0381974
0.0382539
0.0382916
0.0383111
0.0383133
0.0382991
0.0382696
0.0382261
0.0381698
0.0381022
0.0380246
0.0379385
0.0378454
0.0377468
0.0376441
0.0375388
0.0374323
0.037326
0.0372212
0.0371192
0.0370212
0.0369283
0.0368416
0.0367621
0.0366907
0.0366282
0.0365754
0.0365327
0.0365007
0.0364794
0.0364687
0.0364679
0.0364758
0.0364893
0.036506
0.036515
0.0299514
0.0299474
0.0299244
0.0298764
0.0298106
0.029732
0.0296459
0.0295567
0.0294681
0.0293833
0.0293044
0.0292333
0.0291711
0.0291187
0.0290767
0.0290456
0.0290256
0.0290168
0.0290194
0.0290335
0.0290592
0.0290966
0.0291459
0.0292072
0.0292807
0.0293665
0.0294649
0.029576
0.0297
0.0298368
0.0299868
0.0301497
0.0303256
0.0305143
0.0307157
0.0309294
0.031155
0.0313921
0.03164
0.0318981
0.0321654
0.0324411
0.0327241
0.0330133
0.0333074
0.0336051
0.0339049
0.0342053
0.0345048
0.0348017
0.0350944
0.0353814
0.0356609
0.0359314
0.0361913
0.0364392
0.0366737
0.0368936
0.0370978
0.0372854
0.0374555
0.0376075
0.0377411
0.0378559
0.0379518
0.0380291
0.038088
0.038129
0.0381527
0.0381599
0.0381515
0.0381286
0.0380922
0.0380437
0.0379842
0.0379152
0.037838
0.0377541
0.0376647
0.0375713
0.0374753
0.0373781
0.0372808
0.0371848
0.0370912
0.0370012
0.0369158
0.0368361
0.0367629
0.036697
0.0366393
0.0365902
0.0365502
0.0365198
0.0364988
0.0364872
0.0364843
0.0364892
0.0364997
0.0365156
0.0365254
0.0300196
0.0300092
0.0299783
0.029929
0.0298655
0.0297922
0.0297132
0.0296321
0.0295519
0.0294752
0.0294039
0.0293395
0.0292832
0.0292357
0.0291978
0.0291697
0.0291519
0.0291445
0.0291477
0.0291617
0.0291867
0.0292227
0.0292701
0.0293289
0.0293995
0.0294819
0.0295764
0.0296832
0.0298025
0.0299342
0.0300786
0.0302356
0.0304052
0.0305873
0.0307816
0.030988
0.0312059
0.031435
0.0316747
0.0319242
0.0321829
0.0324497
0.0327236
0.0330037
0.0332886
0.0335771
0.0338677
0.0341591
0.0344497
0.0347381
0.0350225
0.0353014
0.0355733
0.0358367
0.03609
0.0363318
0.0365609
0.036776
0.0369761
0.0371602
0.0373276
0.0374776
0.0376099
0.0377241
0.0378203
0.0378985
0.037959
0.0380022
0.0380288
0.0380396
0.0380352
0.0380169
0.0379856
0.0379425
0.0378889
0.037826
0.0377552
0.0376778
0.0375952
0.0375086
0.0374194
0.0373288
0.0372382
0.0371486
0.0370612
0.0369772
0.0368974
0.0368228
0.0367542
0.0366925
0.0366382
0.0365919
0.036554
0.0365249
0.0365046
0.0364929
0.0364895
0.0364938
0.0365041
0.0365225
0.0365346
0.0301139
0.0300943
0.0300507
0.0299961
0.0299311
0.0298597
0.0297847
0.029709
0.0296349
0.0295645
0.0294993
0.0294406
0.0293893
0.0293462
0.0293118
0.0292865
0.0292706
0.0292643
0.0292679
0.0292815
0.0293055
0.02934
0.0293851
0.0294413
0.0295086
0.0295873
0.0296777
0.02978
0.0298942
0.0300207
0.0301594
0.0303104
0.0304736
0.030649
0.0308364
0.0310355
0.031246
0.0314674
0.0316992
0.0319407
0.0321912
0.0324497
0.0327153
0.032987
0.0332636
0.0335438
0.0338263
0.0341098
0.0343926
0.0346734
0.0349506
0.0352227
0.0354882
0.0357455
0.0359932
0.03623
0.0364545
0.0366656
0.0368623
0.0370435
0.0372087
0.0373571
0.0374883
0.0376022
0.0376986
0.0377776
0.0378394
0.0378846
0.0379137
0.0379274
0.0379265
0.037912
0.037885
0.0378466
0.0377979
0.0377403
0.0376749
0.0376032
0.0375263
0.0374456
0.0373622
0.0372776
0.0371927
0.0371087
0.0370268
0.0369479
0.036873
0.0368029
0.0367384
0.0366803
0.0366291
0.0365853
0.0365494
0.0365215
0.0365019
0.0364906
0.0364872
0.0364917
0.0365026
0.0365238
0.0365382
0.0302271
0.0301963
0.0301364
0.0300734
0.0300035
0.0299306
0.0298565
0.0297834
0.029713
0.0296468
0.029586
0.0295316
0.0294842
0.0294445
0.0294129
0.0293897
0.0293752
0.0293696
0.0293732
0.0293862
0.0294089
0.0294415
0.0294842
0.0295374
0.0296013
0.0296762
0.0297623
0.0298599
0.0299692
0.0300903
0.0302234
0.0303684
0.0305255
0.0306945
0.0308753
0.0310677
0.0312712
0.0314856
0.0317102
0.0319445
0.0321876
0.0324389
0.0326973
0.0329618
0.0332313
0.0335046
0.0337804
0.0340572
0.0343338
0.0346086
0.0348801
0.0351468
0.0354072
0.0356599
0.0359034
0.0361364
0.0363575
0.0365657
0.0367599
0.0369392
0.0371028
0.0372501
0.0373807
0.0374944
0.0375911
0.0376708
0.0377338
0.0377805
0.0378116
0.0378276
0.0378294
0.0378179
0.0377943
0.0377595
0.0377147
0.0376612
0.0376002
0.0375329
0.0374606
0.0373846
0.037306
0.037226
0.0371458
0.0370664
0.0369889
0.0369142
0.0368432
0.0367768
0.0367157
0.0366604
0.0366117
0.03657
0.0365357
0.036509
0.0364902
0.0364793
0.0364762
0.0364812
0.0364931
0.0365167
0.036533
0.0303519
0.0303086
0.0302303
0.0301566
0.0300793
0.0300025
0.029927
0.0298544
0.0297857
0.0297221
0.0296642
0.0296128
0.0295683
0.0295311
0.0295015
0.0294798
0.0294662
0.0294608
0.029464
0.029476
0.0294971
0.0295275
0.0295675
0.0296175
0.0296777
0.0297485
0.0298302
0.029923
0.0300271
0.0301429
0.0302703
0.0304095
0.0305606
0.0307234
0.0308979
0.0310839
0.0312809
0.0314887
0.0317068
0.0319345
0.0321712
0.032416
0.0326681
0.0329265
0.03319
0.0334575
0.0337277
0.0339992
0.0342708
0.0345408
0.0348079
0.0350705
0.0353273
0.0355766
0.035817
0.0360474
0.0362662
0.0364725
0.0366651
0.0368432
0.0370059
0.0371527
0.0372831
0.0373969
0.037494
0.0375745
0.0376385
0.0376866
0.0377192
0.0377371
0.0377411
0.0377321
0.037711
0.0376791
0.0376374
0.0375871
0.0375295
0.0374657
0.037397
0.0373247
0.0372498
0.0371736
0.0370971
0.0370214
0.0369474
0.0368761
0.0368083
0.0367448
0.0366863
0.0366335
0.0365868
0.0365467
0.0365137
0.036488
0.0364698
0.0364593
0.0364566
0.0364622
0.0364748
0.0365001
0.0365176
0.0304818
0.0304254
0.0303273
0.0302413
0.0301549
0.0300724
0.0299937
0.0299197
0.0298512
0.0297887
0.0297324
0.0296829
0.0296402
0.0296046
0.0295763
0.0295553
0.0295419
0.0295363
0.0295386
0.0295491
0.0295681
0.0295959
0.0296329
0.0296794
0.0297357
0.0298022
0.0298793
0.0299672
0.0300662
0.0301765
0.0302984
0.0304319
0.0305771
0.030734
0.0309025
0.0310824
0.0312734
0.0314753
0.0316874
0.0319092
0.0321402
0.0323794
0.0326261
0.0328793
0.0331379
0.0334006
0.0336664
0.0339339
0.0342016
0.0344682
0.0347321
0.034992
0.0352462
0.0354934
0.0357321
0.0359609
0.0361786
0.0363839
0.0365759
0.0367535
0.0369161
0.037063
0.0371937
0.037308
0.0374057
0.037487
0.0375521
0.0376014
0.0376355
0.0376549
0.0376606
0.0376534
0.0376344
0.0376046
0.0375653
0.0375174
0.0374624
0.0374013
0.0373354
0.0372658
0.0371938
0.0371204
0.0370468
0.0369738
0.0369026
0.0368338
0.0367685
0.0367073
0.0366508
0.0365998
0.0365546
0.0365158
0.0364837
0.0364586
0.0364409
0.0364307
0.0364283
0.0364341
0.0364471
0.0364732
0.0364913
0.030611
0.0305413
0.0304227
0.0303234
0.0302267
0.0301371
0.0300538
0.0299772
0.0299075
0.0298448
0.029789
0.0297402
0.0296984
0.0296636
0.0296357
0.0296148
0.029601
0.0295944
0.0295953
0.0296039
0.0296204
0.0296453
0.0296789
0.0297216
0.0297737
0.0298357
0.029908
0.0299909
0.0300847
0.0301896
0.030306
0.0304339
0.0305735
0.0307247
0.0308875
0.0310617
0.0312472
0.0314435
0.0316503
0.031867
0.0320929
0.0323274
0.0325695
0.0328184
0.033073
0.0333321
0.0335946
0.0338591
0.0341242
0.0343885
0.0346505
0.0349087
0.0351617
0.035408
0.035646
0.0358745
0.036092
0.0362975
0.0364897
0.0366678
0.036831
0.0369786
0.0371101
0.0372253
0.0373241
0.0374065
0.0374727
0.0375232
0.0375585
0.0375793
0.0375864
0.0375807
0.0375633
0.0375352
0.0374975
0.0374514
0.0373982
0.0373391
0.0372751
0.0372076
0.0371377
0.0370663
0.0369947
0.0369238
0.0368545
0.0367877
0.0367241
0.0366645
0.0366094
0.0365596
0.0365155
0.0364774
0.0364459
0.0364213
0.0364037
0.0363936
0.0363911
0.0363968
0.0364099
0.0364359
0.036454
0.0307346
0.0306515
0.0305121
0.0303989
0.0302911
0.0301935
0.0301045
0.0300243
0.0299523
0.0298883
0.029832
0.0297831
0.0297413
0.0297063
0.0296781
0.0296565
0.0296417
0.0296336
0.0296324
0.0296385
0.0296522
0.0296737
0.0297035
0.0297421
0.0297898
0.0298472
0.0299145
0.0299923
0.0300808
0.0301804
0.0302914
0.0304138
0.030548
0.0306938
0.0308512
0.0310202
0.0312006
0.031392
0.031594
0.0318061
0.0320277
0.0322582
0.0324966
0.0327421
0.0329936
0.0332501
0.0335102
0.0337728
0.0340364
0.0342995
0.0345608
0.0348186
0.0350716
0.035318
0.0355566
0.0357858
0.0360043
0.0362109
0.0364044
0.0365838
0.0367484
0.0368974
0.0370304
0.0371471
0.0372473
0.037331
0.0373986
0.0374504
0.037487
0.037509
0.0375173
0.0375129
0.0374966
0.0374697
0.0374332
0.0373884
0.0373365
0.0372786
0.037216
0.0371498
0.0370812
0.0370112
0.036941
0.0368714
0.0368033
0.0367377
0.0366752
0.0366165
0.0365624
0.0365133
0.0364697
0.036432
0.0364007
0.0363761
0.0363584
0.036348
0.0363452
0.0363505
0.036363
0.0363883
0.036406
0.0308479
0.0307516
0.0305914
0.030464
0.0303445
0.0302382
0.0301429
0.0300582
0.0299831
0.029917
0.0298593
0.0298094
0.0297667
0.0297308
0.0297015
0.0296786
0.0296619
0.0296517
0.029648
0.0296511
0.0296614
0.0296791
0.0297049
0.029739
0.0297821
0.0298346
0.0298969
0.0299695
0.0300529
0.0301472
0.0302528
0.0303701
0.030499
0.0306397
0.0307921
0.0309563
0.031132
0.0313189
0.0315167
0.0317249
0.0319429
0.03217
0.0324055
0.0326484
0.0328978
0.0331525
0.0334113
0.033673
0.0339361
0.0341993
0.0344609
0.0347195
0.0349735
0.0352214
0.0354616
0.0356927
0.0359132
0.036122
0.0363177
0.0364994
0.0366663
0.0368175
0.0369526
0.0370713
0.0371734
0.0372589
0.0373282
0.0373815
0.0374194
0.0374427
0.0374521
0.0374487
0.0374334
0.0374074
0.0373718
0.0373278
0.0372766
0.0372195
0.0371576
0.0370921
0.0370242
0.036955
0.0368854
0.0368165
0.036749
0.0366839
0.036622
0.0365637
0.0365099
0.036461
0.0364175
0.0363798
0.0363482
0.0363233
0.0363051
0.0362942
0.0362906
0.036295
0.0363066
0.0363307
0.0363476
0.0309469
0.0308374
0.0306565
0.0305148
0.0303835
0.0302681
0.0301659
0.030076
0.0299972
0.0299284
0.0298685
0.0298168
0.0297725
0.0297349
0.0297038
0.0296788
0.0296598
0.0296468
0.0296399
0.0296396
0.029646
0.0296596
0.0296809
0.0297104
0.0297486
0.0297961
0.0298534
0.0299208
0.029999
0.0300881
0.0301887
0.0303009
0.0304249
0.0305608
0.0307086
0.0308684
0.0310399
0.0312229
0.031417
0.0316218
0.0318368
0.0320614
0.0322946
0.0325358
0.0327838
0.0330376
0.0332961
0.0335578
0.0338215
0.0340856
0.0343487
0.0346092
0.0348654
0.0351158
0.0353588
0.0355929
0.0358166
0.0360286
0.0362276
0.0364126
0.0365826
0.0367369
0.0368749
0.0369963
0.0371008
0.0371886
0.0372599
0.037315
0.0373545
0.0373791
0.0373897
0.0373873
0.0373728
0.0373474
0.0373124
0.0372688
0.037218
0.0371612
0.0370996
0.0370343
0.0369666
0.0368975
0.036828
0.0367591
0.0366917
0.0366266
0.0365645
0.0365062
0.0364521
0.0364029
0.036359
0.0363208
0.0362887
0.036263
0.036244
0.0362321
0.0362275
0.0362307
0.036241
0.0362633
0.0362791
0.0310274
0.0309051
0.0307038
0.0305478
0.0304045
0.0302799
0.0301704
0.030075
0.0299919
0.0299196
0.029857
0.0298028
0.0297562
0.0297163
0.0296827
0.0296549
0.0296329
0.0296165
0.0296061
0.0296017
0.0296038
0.029613
0.0296296
0.0296542
0.0296874
0.0297299
0.029782
0.0298444
0.0299174
0.0300016
0.0300973
0.0302047
0.0303241
0.0304556
0.0305993
0.030755
0.0309228
0.0311024
0.0312934
0.0314954
0.0317081
0.0319306
0.0321623
0.0324024
0.0326499
0.0329037
0.0331626
0.0334253
0.0336905
0.0339567
0.0342223
0.0344857
0.0347452
0.0349993
0.0352463
0.0354845
0.0357125
0.0359289
0.0361322
0.0363215
0.0364956
0.0366539
0.0367956
0.0369204
0.0370281
0.0371187
0.0371924
0.0372497
0.037291
0.0373172
0.0373291
0.0373276
0.0373139
0.0372891
0.0372543
0.037211
0.0371602
0.0371033
0.0370415
0.036976
0.036908
0.0368385
0.0367686
0.0366992
0.0366313
0.0365656
0.036503
0.036444
0.0363892
0.0363392
0.0362944
0.0362553
0.0362221
0.0361954
0.0361752
0.036162
0.036156
0.0361577
0.0361663
0.0361866
0.0362011
0.0310859
0.0309508
0.0307295
0.0305594
0.0304041
0.0302701
0.0301533
0.0300519
0.0299641
0.029888
0.0298221
0.0297649
0.0297153
0.0296725
0.0296357
0.0296046
0.029579
0.0295587
0.0295441
0.0295353
0.0295329
0.0295372
0.0295488
0.0295684
0.0295966
0.029634
0.029681
0.0297384
0.0298067
0.0298861
0.0299772
0.0300802
0.0301954
0.0303229
0.0304627
0.030615
0.0307795
0.0309561
0.0311445
0.0313444
0.0315552
0.0317764
0.0320072
0.0322469
0.0324945
0.032749
0.0330092
0.0332738
0.0335414
0.0338105
0.0340796
0.034347
0.034611
0.0348699
0.035122
0.0353656
0.035599
0.0358209
0.0360297
0.0362243
0.0364036
0.0365667
0.0367131
0.0368421
0.0369537
0.0370477
0.0371245
0.0371844
0.037228
0.037256
0.0372693
0.0372689
0.0372559
0.0372316
0.0371971
0.0371538
0.0371028
0.0370455
0.0369832
0.0369171
0.0368483
0.0367779
0.0367071
0.0366368
0.0365679
0.0365011
0.0364374
0.0363772
0.0363212
0.03627
0.0362239
0.0361834
0.0361488
0.0361206
0.0360989
0.036084
0.0360763
0.0360761
0.0360829
0.0361007
0.0361138
0.0311186
0.0309712
0.0307302
0.0305461
0.030379
0.0302356
0.0301112
0.0300038
0.029911
0.0298307
0.029761
0.0297002
0.0296472
0.0296008
0.0295604
0.0295254
0.0294956
0.029471
0.0294518
0.0294382
0.0294308
0.0294301
0.0294367
0.0294512
0.0294743
0.0295066
0.0295489
0.0296015
0.0296651
0.0297402
0.029827
0.029926
0.0300374
0.0301613
0.0302979
0.0304471
0.0306089
0.030783
0.0309694
0.0311675
0.031377
0.0315974
0.0318279
0.0320678
0.0323162
0.0325721
0.0328343
0.0331016
0.0333725
0.0336455
0.0339191
0.0341915
0.034461
0.0347258
0.0349842
0.0352342
0.0354743
0.0357029
0.0359183
0.0361194
0.036305
0.0364741
0.0366259
0.0367601
0.0368764
0.0369746
0.037055
0.0371181
0.0371643
0.0371944
0.0372094
0.0372103
0.0371983
0.0371744
0.0371401
0.0370966
0.0370453
0.0369874
0.0369243
0.0368572
0.0367873
0.0367157
0.0366435
0.0365718
0.0365014
0.0364331
0.0363677
0.0363059
0.0362482
0.0361953
0.0361474
0.0361052
0.0360688
0.0360387
0.0360151
0.0359983
0.0359885
0.0359863
0.0359909
0.0360061
0.0360176
0.0311221
0.0309625
0.0307023
0.0305045
0.0303257
0.0301731
0.0300411
0.0299276
0.0298295
0.0297446
0.0296708
0.0296061
0.0295491
0.0294987
0.029454
0.0294147
0.0293803
0.0293509
0.0293268
0.0293082
0.0292956
0.0292897
0.0292912
0.0293006
0.0293188
0.0293463
0.0293839
0.0294321
0.0294915
0.0295626
0.0296457
0.0297411
0.0298492
0.0299701
0.0301038
0.0302505
0.03041
0.0305823
0.030767
0.0309639
0.0311727
0.0313927
0.0316234
0.0318641
0.0321138
0.0323717
0.0326366
0.0329072
0.0331822
0.03346
0.033739
0.0340174
0.0342935
0.0345653
0.0348311
0.0350888
0.0353368
0.0355732
0.0357966
0.0360053
0.0361983
0.0363744
0.0365329
0.0366732
0.0367949
0.0368981
0.0369829
0.0370497
0.0370991
0.0371318
0.0371489
0.0371513
0.0371402
0.037117
0.0370828
0.0370392
0.0369873
0.0369286
0.0368645
0.0367961
0.0367247
0.0366516
0.0365777
0.0365041
0.0364317
0.0363615
0.036294
0.0362301
0.0361703
0.0361152
0.0360652
0.0360207
0.0359821
0.0359498
0.0359239
0.0359049
0.0358928
0.0358882
0.0358904
0.0359029
0.0359128
0.031093
0.0309215
0.0306425
0.0304313
0.0302411
0.0300793
0.0299398
0.0298199
0.0297165
0.0296269
0.0295485
0.0294795
0.0294182
0.0293633
0.0293141
0.0292699
0.0292306
0.0291961
0.0291668
0.0291429
0.0291251
0.0291141
0.0291105
0.029115
0.0291285
0.0291515
0.0291849
0.0292291
0.0292848
0.0293524
0.0294323
0.0295248
0.0296301
0.0297485
0.02988
0.0300247
0.0301825
0.0303533
0.0305369
0.030733
0.0309414
0.0311615
0.0313928
0.0316347
0.0318863
0.0321467
0.0324148
0.0326895
0.0329692
0.0332525
0.0335378
0.0338232
0.0341068
0.0343868
0.0346611
0.0349278
0.0351849
0.0354305
0.0356629
0.0358806
0.0360822
0.0362666
0.0364327
0.0365801
0.0367084
0.0368174
0.0369073
0.0369786
0.0370317
0.0370675
0.0370869
0.0370911
0.0370813
0.0370588
0.0370249
0.036981
0.0369285
0.0368689
0.0368035
0.0367336
0.0366605
0.0365854
0.0365094
0.0364336
0.0363589
0.0362862
0.0362163
0.0361498
0.0360875
0.0360297
0.0359771
0.03593
0.0358889
0.0358539
0.0358255
0.0358038
0.0357892
0.035782
0.0357817
0.0357913
0.0357995
0.0310279
0.0308448
0.0305473
0.0303231
0.0301217
0.0299509
0.0298039
0.0296778
0.029569
0.0294743
0.0293913
0.0293176
0.0292517
0.029192
0.0291379
0.0290886
0.029044
0.0290043
0.0289696
0.0289404
0.0289174
0.0289013
0.0288928
0.0288928
0.0289019
0.028921
0.0289506
0.0289915
0.0290441
0.0291089
0.0291862
0.0292764
0.0293797
0.0294963
0.0296262
0.0297694
0.029926
0.0300958
0.0302787
0.0304745
0.0306828
0.0309034
0.0311357
0.0313791
0.0316329
0.0318963
0.0321681
0.0324473
0.0327324
0.0330219
0.0333142
0.0336075
0.0338997
0.0341889
0.0344729
0.0347497
0.0350172
0.0352733
0.0355162
0.0357441
0.0359556
0.0361494
0.0363244
0.0364801
0.0366158
0.0367316
0.0368274
0.0369038
0.0369613
0.0370006
0.0370229
0.0370293
0.037021
0.0369993
0.0369658
0.0369217
0.0368686
0.036808
0.0367412
0.0366696
0.0365945
0.0365171
0.0364387
0.0363603
0.0362829
0.0362073
0.0361345
0.0360651
0.0359997
0.0359389
0.0358833
0.0358332
0.035789
0.0357511
0.0357197
0.0356952
0.0356778
0.0356677
0.0356647
0.0356713
0.0356779
0.0309234
0.030729
0.0304136
0.0301767
0.0299644
0.0297848
0.0296304
0.0294981
0.0293837
0.029284
0.0291961
0.0291176
0.0290467
0.028982
0.0289226
0.0288681
0.0288181
0.0287729
0.0287329
0.0286985
0.0286705
0.0286496
0.0286367
0.0286325
0.028638
0.0286537
0.0286804
0.0287186
0.0287689
0.0288317
0.0289074
0.0289961
0.0290981
0.0292135
0.0293424
0.0294848
0.0296407
0.02981
0.0299926
0.0301884
0.0303971
0.0306184
0.0308519
0.0310971
0.0313534
0.0316199
0.0318958
0.0321799
0.0324708
0.0327672
0.0330672
0.0333691
0.0336709
0.0339703
0.0342652
0.0345533
0.0348325
0.0351004
0.0353551
0.0355946
0.0358174
0.0360219
0.0362071
0.0363721
0.0365165
0.0366399
0.0367426
0.0368249
0.0368874
0.0369309
0.0369565
0.0369654
0.0369589
0.0369383
0.0369052
0.036861
0.0368073
0.0367456
0.0366772
0.0366037
0.0365264
0.0364466
0.0363654
0.0362841
0.0362035
0.0361248
0.0360486
0.0359757
0.0359069
0.0358427
0.0357836
0.0357301
0.0356825
0.0356413
0.0356067
0.035579
0.0355584
0.0355454
0.0355395
0.035543
0.0355478
0.0307763
0.0305709
0.030238
0.0299888
0.0297658
0.0295776
0.0294161
0.0292776
0.0291577
0.0290528
0.0289598
0.0288763
0.0288003
0.0287304
0.0286657
0.0286058
0.0285504
0.0284999
0.0284546
0.0284153
0.0283826
0.0283574
0.0283407
0.0283331
0.0283356
0.0283488
0.0283735
0.0284101
0.0284591
0.028521
0.0285959
0.0286841
0.0287857
0.0289008
0.0290294
0.0291716
0.0293274
0.0294967
0.0296794
0.0298754
0.0300846
0.0303068
0.0305416
0.0307887
0.0310475
0.0313174
0.0315975
0.0318868
0.032184
0.0324876
0.032796
0.0331073
0.0334193
0.03373
0.0340368
0.0343375
0.0346296
0.0349107
0.0351786
0.0354312
0.0356666
0.0358833
0.0360799
0.0362556
0.0364097
0.0365419
0.0366523
0.0367413
0.0368095
0.0368578
0.0368873
0.0368991
0.0368947
0.0368754
0.0368429
0.0367988
0.0367444
0.0366815
0.0366115
0.0365359
0.0364562
0.0363736
0.0362894
0.0362048
0.0361208
0.0360384
0.0359585
0.0358818
0.0358092
0.0357411
0.0356781
0.0356207
0.0355694
0.0355244
0.0354862