# vtk DataFile Version 2.0
insac
ASCII
DATASET STRUCTURED_GRID
DIMENSIONS 51 51 1
POINTS 2601 float
0 0 0
0.02 0 0
0.04 0 0
0.06 0 0
0.08 0 0
0.1 0 0
0.12 0 0
0.14 0 0
0.16 0 0
0.18 0 0
0.2 0 0
0.22 0 0
0.24 0 0
0.26 0 0
0.28 0 0
0.3 0 0
0.32 0 0
0.34 0 0
0.36 0 0
0.38 0 0
0.4 0 0
0.42 0 0
0.44 0 0
0.46 0 0
0.48 0 0
0.5 0 0
0.52 0 0
0.54 0 0
0.56 0 0
0.58 0 0
0.6 0 0
0.62 0 0
0.64 0 0
0.66 0 0
0.68 0 0
0.7 0 0
0.72 0 0
0.74 0 0
0.76 0 0
0.78 0 0
0.8 0 0
0.82 0 0
0.84 0 0
0.86 0 0
0.88 0 0
0.9 0 0
0.92 0 0
0.94 0 0
0.96 0 0
0.98 0 0
1 0 0
0 0.02 0
0.02 0.02 0
0.04 0.02 0
0.06 0.02 0
0.08 0.02 0
0.1 0.02 0
0.12 0.02 0
0.14 0.02 0
0.16 0.02 0
0.18 0.02 0
0.2 0.02 0
0.22 0.02 0
0.24 0.02 0
0.26 0.02 0
0.28 0.02 0
0.3 0.02 0
0.32 0.02 0
0.34 0.02 0
0.36 0.02 0
0.38 0.02 0
0.4 0.02 0
0.42 0.02 0
0.44 0.02 0
0.46 0.02 0
0.48 0.02 0
0.5 0.02 0
0.52 0.02 0
0.54 0.02 0
0.56 0.02 0
0.58 0.02 0
0.6 0.02 0
0.62 0.02 0
0.64 0.02 0
0.66 0.02 0
0.68 0.02 0
0.7 0.02 0
0.72 0.02 0
0.74 0.02 0
0.76 0.02 0
0.78 0.02 0
0.8 0.02 0
0.82 0.02 0
0.84 0.02 0
0.86 0.02 0
0.88 0.02 0
0.9 0.02 0
0.92 0.02 0
0.94 0.02 0
0.96 0.02 0
0.98 0.02 0
1 0.02 0
0 0.04 0
0.02 0.04 0
0.04 0.04 0
0.06 0.04 0
0.08 0.04 0
0.1 0.04 0
0.12 0.04 0
0.14 0.04 0
0.16 0.04 0
0.18 0.04 0
0.2 0.04 0
0.22 0.04 0
0.24 0.04 0
0.26 0.04 0
0.28 0.04 0
0.3 0.04 0
0.32 0.04 0
0.34 0.04 0
0.36 0.04 0
0.38 0.04 0
0.4 0.04 0
0.42 0.04 0
0.44 0.04 0
0.46 0.04 0
0.48 0.04 0
0.5 0.04 0
0.52 0.04 0
0.54 0.04 0
0.56 0.04 0
0.58 0.04 0
0.6 0.04 0
0.62 0.04 0
0.64 0.04 0
0.66 0.04 0
0.68 0.04 0
0.7 0.04 0
0.72 0.04 0
0.74 0.04 0
0.76 0.04 0
0.78 0.04 0
0.8 0.04 0
0.82 0.04 0
0.84 0.04 0
0.86 0.04 0
0.88 0.04 0
0.9 0.04 0
0.92 0.04 0
0.94 0.04 0
0.96 0.04 0
0.98 0.04 0
1 0.04 0
0 0.06 0
0.02 0.06 0
0.04 0.06 0
0.06 0.06 0
0.08 0.06 0
0.1 0.06 0
0.12 0.06 0
0.14 0.06 0
0.16 0.06 0
0.18 0.06 0
0.2 0.06 0
0.22 0.06 0
0.24 0.06 0
0.26 0.06 0
0.28 0.06 0
0.3 0.06 0
0.32 0.06 0
0.34 0.06 0
0.36 0.06 0
0.38 0.06 0
0.4 0.06 0
0.42 0.06 0
0.44 0.06 0
0.46 0.06 0
0.48 0.06 0
0.5 0.06 0
0.52 0.06 0
0.54 0.06 0
0.56 0.06 0
0.58 0.06 0
0.6 0.06 0
0.62 0.06 0
0.64 0.06 0
0.66 0.06 0
0.68 0.06 0
0.7 0.06 0
0.72 0.06 0
0.74 0.06 0
0.76 0.06 0
0.78 0.06 0
0.8 0.06 0
0.82 0.06 0
0.84 0.06 0
0.86 0.06 0
0.88 0.06 0
0.9 0.06 0
0.92 0.06 0
0.94 0.06 0
0.96 0.06 0
0.98 0.06 0
1 0.06 0
0 0.08 0
0.02 0.08 0
0.04 0.08 0
0.06 0.08 0
0.08 0.08 0
0.1 0.08 0
0.12 0.08 0
0.14 0.08 0
0.16 0.08 0
0.18 0.08 0
0.2 0.08 0
0.22 0.08 0
0.24 0.08 0
0.26 0.08 0
0.28 0.08 0
0.3 0.08 0
0.32 0.08 0
0.34 0.08 0
0.36 0.08 0
0.38 0.08 0
0.4 0.08 0
0.42 0.08 0
0.44 0.08 0
0.46 0.08 0
0.48 0.08 0
0.5 0.08 0
0.52 0.08 0
0.54 0.08 0
0.56 0.08 0
0.58 0.08 0
0.6 0.08 0
0.62 0.08 0
0.64 0.08 0
0.66 0.08 0
0.68 0.08 0
0.7 0.08 0
0.72 0.08 0
0.74 0.08 0
0.76 0.08 0
0.78 0.08 0
0.8 0.08 0
0.82 0.08 0
0.84 0.08 0
0.86 0.08 0
0.88 0.08 0
0.9 0.08 0
0.92 0.08 0
0.94 0.08 0
0.96 0.08 0
0.98 0.08 0
1 0.08 0
0 0.1 0
0.02 0.1 0
0.04 0.1 0
0.06 0.1 0
0.08 0.1 0
0.1 0.1 0
0.12 0.1 0
0.14 0.1 0
0.16 0.1 0
0.18 0.1 0
0.2 0.1 0
0.22 0.1 0
0.24 0.1 0
0.26 0.1 0
0.28 0.1 0
0.3 0.1 0
0.32 0.1 0
0.34 0.1 0
0.36 0.1 0
0.38 0.1 0
0.4 0.1 0
0.42 0.1 0
0.44 0.1 0
0.46 0.1 0
0.48 0.1 0
0.5 0.1 0
0.52 0.1 0
0.54 0.1 0
0.56 0.1 0
0.58 0.1 0
0.6 0.1 0
0.62 0.1 0
0.64 0.1 0
0.66 0.1 0
0.68 0.1 0
0.7 0.1 0
0.72 0.1 0
0.74 0.1 0
0.76 0.1 0
0.78 0.1 0
0.8 0.1 0
0.82 0.1 0
0.84 0.1 0
0.86 0.1 0
0.88 0.1 0
0.9 0.1 0
0.92 0.1 0
0.94 0.1 0
0.96 0.1 0
0.98 0.1 0
1 0.1 0
0 0.12 0
0.02 0.12 0
0.04 0.12 0
0.06 0.12 0
0.08 0.12 0
0.1 0.12 0
0.12 0.12 0
0.14 0.12 0
0.16 0.12 0
0.18 0.12 0
0.2 0.12 0
0.22 0.12 0
0.24 0.12 0
0.26 0.12 0
0.28 0.12 0
0.3 0.12 0
0.32 0.12 0
0.34 0.12 0
0.36 0.12 0
0.38 0.12 0
0.4 0.12 0
0.42 0.12 0
0.44 0.12 0
0.46 0.12 0
0.48 0.12 0
0.5 0.12 0
0.52 0.12 0
0.54 0.12 0
0.56 0.12 0
0.58 0.12 0
0.6 0.12 0
0.62 0.12 0
0.64 0.12 0
0.66 0.12 0
0.68 0.12 0
0.7 0.12 0
0.72 0.12 0
0.74 0.12 0
0.76 0.12 0
0.78 0.12 0
0.8 0.12 0
0.82 0.12 0
0.84 0.12 0
0.86 0.12 0
0.88 0.12 0
0.9 0.12 0
0.92 0.12 0
0.94 0.12 0
0.96 0.12 0
0.98 0.12 0
1 0.12 0
0 0.14 0
0.02 0.14 0
0.04 0.14 0
0.06 0.14 0
0.08 0.14 0
0.1 0.14 0
0.12 0.14 0
0.14 0.14 0
0.16 0.14 0
0.18 0.14 0
0.2 0.14 0
0.22 0.14 0
0.24 0.14 0
0.26 0.14 0
0.28 0.14 0
0.3 0.14 0
0.32 0.14 0
0.34 0.14 0
0.36 0.14 0
0.38 0.14 0
0.4 0.14 0
0.42 0.14 0
0.44 0.14 0
0.46 0.14 0
0.48 0.14 0
0.5 0.14 0
0.52 0.14 0
0.54 0.14 0
0.56 0.14 0
0.58 0.14 0
0.6 0.14 0
0.62 0.14 0
0.64 0.14 0
0.66 0.14 0
0.68 0.14 0
0.7 0.14 0
0.72 0.14 0
0.74 0.14 0
0.76 0.14 0
0.78 0.14 0
0.8 0.14 0
0.82 0.14 0
0.84 0.14 0
0.86 0.14 0
0.88 0.14 0
0.9 0.14 0
0.92 0.14 0
0.94 0.14 0
0.96 0.14 0
0.98 0.14 0
1 0.14 0
0 0.16 0
0.02 0.16 0
0.04 0.16 0
0.06 0.16 0
0.08 0.16 0
0.1 0.16 0
0.12 0.16 0
0.14 0.16 0
0.16 0.16 0
0.18 0.16 0
0.2 0.16 0
0.22 0.16 0
0.24 0.16 0
0.26 0.16 0
0.28 0.16 0
0.3 0.16 0
0.32 0.16 0
0.34 0.16 0
0.36 0.16 0
0.38 0.16 0
0.4 0.16 0
0.42 0.16 0
0.44 0.16 0
0.46 0.16 0
0.48 0.16 0
0.5 0.16 0
0.52 0.16 0
0.54 0.16 0
0.56 0.16 0
0.58 0.16 0
0.6 0.16 0
0.62 0.16 0
0.64 0.16 0
0.66 0.16 0
0.68 0.16 0
0.7 0.16 0
0.72 0.16 0
0.74 0.16 0
0.76 0.16 0
0.78 0.16 0
0.8 0.16 0
0.82 0.16 0
0.84 0.16 0
0.86 0.16 0
0.88 0.16 0
0.9 0.16 0
0.92 0.16 0
0.94 0.16 0
0.96 0.16 0
0.98 0.16 0
1 0.16 0
0 0.18 0
0.02 0.18 0
0.04 0.18 0
0.06 0.18 0
0.08 0.18 0
0.1 0.18 0
0.12 0.18 0
0.14 0.18 0
0.16 0.18 0
0.18 0.18 0
0.2 0.18 0
0.22 0.18 0
0.24 0.18 0
0.26 0.18 0
0.28 0.18 0
0.3 0.18 0
0.32 0.18 0
0.34 0.18 0
0.36 0.18 0
0.38 0.18 0
0.4 0.18 0
0.42 0.18 0
0.44 0.18 0
0.46 0.18 0
0.48 0.18 0
0.5 0.18 0
0.52 0.18 0
0.54 0.18 0
0.56 0.18 0
0.58 0.18 0
0.6 0.18 0
0.62 0.18 0
0.64 0.18 0
0.66 0.18 0
0.68 0.18 0
0.7 0.18 0
0.72 0.18 0
0.74 0.18 0
0.76 0.18 0
0.78 0.18 0
0.8 0.18 0
0.82 0.18 0
0.84 0.18 0
0.86 0.18 0
0.88 0.18 0
0.9 0.18 0
0.92 0.18 0
0.94 0.18 0
0.96 0.18 0
0.98 0.18 0
1 0.18 0
0 0.2 0
0.02 0.2 0
0.04 0.2 0
0.06 0.2 0
0.08 0.2 0
0.1 0.2 0
0.12 0.2 0
0.14 0.2 0
0.16 0.2 0
0.18 0.2 0
0.2 0.2 0
0.22 0.2 0
0.24 0.2 0
0.26 0.2 0
0.28 0.2 0
0.3 0.2 0
0.32 0.2 0
0.34 0.2 0
0.36 0.2 0
0.38 0.2 0
0.4 0.2 0
0.42 0.2 0
0.44 0.2 0
0.46 0.2 0
0.48 0.2 0
0.5 0.2 0
0.52 0.2 0
0.54 0.2 0
0.56 0.2 0
0.58 0.2 0
0.6 0.2 0
0.62 0.2 0
0.64 0.2 0
0.66 0.2 0
0.68 0.2 0
0.7 0.2 0
0.72 0.2 0
0.74 0.2 0
0.76 0.2 0
0.78 0.2 0
0.8 0.2 0
0.82 0.2 0
0.84 0.2 0
0.86 0.2 0
0.88 0.2 0
0.9 0.2 0
0.92 0.2 0
0.94 0.2 0
0.96 0.2 0
0.98 0.2 0
1 0.2 0
0 0.22 0
0.02 0.22 0
0.04 0.22 0
0.06 0.22 0
0.08 0.22 0
0.1 0.22 0
0.12 0.22 0
0.14 0.22 0
0.16 0.22 0
0.18 0.22 0
0.2 0.22 0
0.22 0.22 0
0.24 0.22 0
0.26 0.22 0
0.28 0.22 0
0.3 0.22 0
0.32 0.22 0
0.34 0.22 0
0.36 0.22 0
0.38 0.22 0
0.4 0.22 0
0.42 0.22 0
0.44 0.22 0
0.46 0.22 0
0.48 0.22 0
0.5 0.22 0
0.52 0.22 0
0.54 0.22 0
0.56 0.22 0
0.58 0.22 0
0.6 0.22 0
0.62 0.22 0
0.64 0.22 0
0.66 0.22 0
0.68 0.22 0
0.7 0.22 0
0.72 0.22 0
0.74 0.22 0
0.76 0.22 0
0.78 0.22 0
0.8 0.22 0
0.82 0.22 0
0.84 0.22 0
0.86 0.22 0
0.88 0.22 0
0.9 0.22 0
0.92 0.22 0
0.94 0.22 0
0.96 0.22 0
0.98 0.22 0
1 0.22 0
0 0.24 0
0.02 0.24 0
0.04 0.24 0
0.06 0.24 0
0.08 0.24 0
0.1 0.24 0
0.12 0.24 0
0.14 0.24 0
0.16 0.24 0
0.18 0.24 0
0.2 0.24 0
0.22 0.24 0
0.24 0.24 0
0.26 0.24 0
0.28 0.24 0
0.3 0.24 0
0.32 0.24 0
0.34 0.24 0
0.36 0.24 0
0.38 0.24 0
0.4 0.24 0
0.42 0.24 0
0.44 0.24 0
0.46 0.24 0
0.48 0.24 0
0.5 0.24 0
0.52 0.24 0
0.54 0.24 0
0.56 0.24 0
0.58 0.24 0
0.6 0.24 0
0.62 0.24 0
0.64 0.24 0
0.66 0.24 0
0.68 0.24 0
0.7 0.24 0
0.72 0.24 0
0.74 0.24 0
0.76 0.24 0
0.78 0.24 0
0.8 0.24 0
0.82 0.24 0
0.84 0.24 0
0.86 0.24 0
0.88 0.24 0
0.9 0.24 0
0.92 0.24 0
0.94 0.24 0
0.96 0.24 0
0.98 0.24 0
1 0.24 0
0 0.26 0
0.02 0.26 0
0.04 0.26 0
0.06 0.26 0
0.08 0.26 0
0.1 0.26 0
0.12 0.26 0
0.14 0.26 0
0.16 0.26 0
0.18 0.26 0
0.2 0.26 0
0.22 0.26 0
0.24 0.26 0
0.26 0.26 0
0.28 0.26 0
0.3 0.26 0
0.32 0.26 0
0.34 0.26 0
0.36 0.26 0
0.38 0.26 0
0.4 0.26 0
0.42 0.26 0
0.44 0.26 0
0.46 0.26 0
0.48 0.26 0
0.5 0.26 0
0.52 0.26 0
0.54 0.26 0
0.56 0.26 0
0.58 0.26 0
0.6 0.26 0
0.62 0.26 0
0.64 0.26 0
0.66 0.26 0
0.68 0.26 0
0.7 0.26 0
0.72 0.26 0
0.74 0.26 0
0.76 0.26 0
0.78 0.26 0
0.8 0.26 0
0.82 0.26 0
0.84 0.26 0
0.86 0.26 0
0.88 0.26 0
0.9 0.26 0
0.92 0.26 0
0.94 0.26 0
0.96 0.26 0
0.98 0.26 0
1 0.26 0
0 0.28 0
0.02 0.28 0
0.04 0.28 0
0.06 0.28 0
0.08 0.28 0
0.1 0.28 0
0.12 0.28 0
0.14 0.28 0
0.16 0.28 0
0.18 0.28 0
0.2 0.28 0
0.22 0.28 0
0.24 0.28 0
0.26 0.28 0
0.28 0.28 0
0.3 0.28 0
0.32 0.28 0
0.34 0.28 0
0.36 0.28 0
0.38 0.28 0
0.4 0.28 0
0.42 0.28 0
0.44 0.28 0
0.46 0.28 0
0.48 0.28 0
0.5 0.28 0
0.52 0.28 0
0.54 0.28 0
0.56 0.28 0
0.58 0.28 0
0.6 0.28 0
0.62 0.28 0
0.64 0.28 0
0.66 0.28 0
0.68 0.28 0
0.7 0.28 0
0.72 0.28 0
0.74 0.28 0
0.76 0.28 0
0.78 0.28 0
0.8 0.28 0
0.82 0.28 0
0.84 0.28 0
0.86 0.28 0
0.88 0.28 0
0.9 0.28 0
0.92 0.28 0
0.94 0.28 0
0.96 0.28 0
0.98 0.28 0
1 0.28 0
0 0.3 0
0.02 0.3 0
0.04 0.3 0
0.06 0.3 0
0.08 0.3 0
0.1 0.3 0
0.12 0.3 0
0.14 0.3 0
0.16 0.3 0
0.18 0.3 0
0.2 0.3 0
0.22 0.3 0
0.24 0.3 0
0.26 0.3 0
0.28 0.3 0
0.3 0.3 0
0.32 0.3 0
0.34 0.3 0
0.36 0.3 0
0.38 0.3 0
0.4 0.3 0
0.42 0.3 0
0.44 0.3 0
0.46 0.3 0
0.48 0.3 0
0.5 0.3 0
0.52 0.3 0
0.54 0.3 0
0.56 0.3 0
0.58 0.3 0
0.6 0.3 0
0.62 0.3 0
0.64 0.3 0
0.66 0.3 0
0.68 0.3 0
0.7 0.3 0
0.72 0.3 0
0.74 0.3 0
0.76 0.3 0
0.78 0.3 0
0.8 0.3 0
0.82 0.3 0
0.84 0.3 0
0.86 0.3 0
0.88 0.3 0
0.9 0.3 0
0.92 0.3 0
0.94 0.3 0
0.96 0.3 0
0.98 0.3 0
1 0.3 0
0 0.32 0
0.02 0.32 0
0.04 0.32 0
0.06 0.32 0
0.08 0.32 0
0.1 0.32 0
0.12 0.32 0
0.14 0.32 0
0.16 0.32 0
0.18 0.32 0
0.2 0.32 0
0.22 0.32 0
0.24 0.32 0
0.26 0.32 0
0.28 0.32 0
0.3 0.32 0
0.32 0.32 0
0.34 0.32 0
0.36 0.32 0
0.38 0.32 0
0.4 0.32 0
0.42 0.32 0
0.44 0.32 0
0.46 0.32 0
0.48 0.32 0
0.5 0.32 0
0.52 0.32 0
0.54 0.32 0
0.56 0.32 0
0.58 0.32 0
0.6 0.32 0
0.62 0.32 0
0.64 0.32 0
0.66 0.32 0
0.68 0.32 0
0.7 0.32 0
0.72 0.32 0
0.74 0.32 0
0.76 0.32 0
0.78 0.32 0
0.8 0.32 0
0.82 0.32 0
0.84 0.32 0
0.86 0.32 0
0.88 0.32 0
0.9 0.32 0
0.92 0.32 0
0.94 0.32 0
0.96 0.32 0
0.98 0.32 0
1 0.32 0
0 0.34 0
0.02 0.34 0
0.04 0.34 0
0.06 0.34 0
0.08 0.34 0
[...]
POINT_DATA 2601
SCALARS pressure float 1
LOOKUP_TABLE default
3.88482
3.8861
3.88875
3.89114
3.89233
3.8916
3.88862
3.88335
3.87594
3.86671
3.85606
3.84439
3.83211
3.81956
3.80701
3.79465
3.78261
3.77097
3.75975
3.74896
3.73857
3.72855
3.71889
3.70957
3.70057
3.69191
3.6836
3.67567
3.66813
3.66104
3.65441
3.64829
3.64269
3.63763
3.63313
3.62918
3.62576
3.62288
3.6205
3.6186
3.61716
3.61617
3.61559
3.61544
3.61569
3.61632
3.61728
3.61849
3.61975
3.62076
3.62118
3.88354
3.88481
3.88722
3.88913
3.88988
3.88884
3.88572
3.88046
3.87321
3.86424
3.85391
3.84261
3.8307
3.8185
3.80626
3.79418
3.78236
3.7709
3.75983
3.74914
3.73883
3.72888
3.71928
3.71001
3.70108
3.69248
3.68424
3.67638
3.66893
3.66192
3.65539
3.64935
3.64383
3.63885
3.63442
3.63052
3.62715
3.6243
3.62193
3.62004
3.61858
3.61756
3.61693
3.6167
3.61684
3.61733
3.61813
3.61915
3.62023
3.62117
3.62159
3.88088
3.88239
3.88481
3.88622
3.88646
3.88501
3.88165
3.87635
3.86922
3.86052
3.85057
3.83972
3.8283
3.81659
3.80481
3.79314
3.78169
3.77052
3.75969
3.7492
3.73904
3.72922
3.71972
3.71054
3.7017
3.6932
3.68507
3.67732
3.66999
3.66311
3.65671
3.65081
3.64543
3.64058
3.63626
3.63246
3.62918
3.62639
3.62407
3.6222
3.62074
3.61967
3.61897
3.61863
3.61861
3.61891
3.61947
3.62026
3.62114
3.6221
3.62262
3.8783
3.88031
3.88328
3.88473
3.88484
3.88316
3.87955
3.87402
3.86673
3.85796
3.84803
3.8373
3.82607
3.8146
3.80311
3.79173
3.78057
3.76967
3.75907
3.74877
3.73877
3.72907
3.71966
3.71056
3.70178
3.69333
3.68524
3.67755
3.67028
3.66348
3.65716
3.65135
3.64607
3.64132
3.63711
3.63341
3.63023
3.62753
3.62528
3.62345
3.62202
3.62096
3.62023
3.61983
3.61973
3.61992
3.62038
3.6211
3.62198
3.62317
3.62389
3.87642
3.87892
3.88249
3.88404
3.88403
3.88204
3.87804
3.87209
3.86443
3.85538
3.84529
3.83453
3.82339
3.81211
3.80088
3.7898
3.77895
3.76836
3.75802
3.74795
3.73813
3.72857
3.71925
3.7102
3.70145
3.69301
3.68493
3.67724
3.66999
3.66322
3.65694
3.6512
3.646
3.64135
3.63724
3.63366
3.63059
3.628
3.62586
3.62412
3.62275
3.62173
3.62102
3.6206
3.62046
3.62059
3.621
3.62171
3.62265
3.62412
3.62508
3.87572
3.87865
3.88273
3.88434
3.88412
3.88168
3.87708
3.8705
3.86225
3.85272
3.84231
3.83139
3.82025
3.80912
3.79814
3.78738
3.77688
3.76662
3.7566
3.74678
3.73716
3.72773
3.71849
3.70947
3.70069
3.69221
3.68408
3.67633
3.66903
3.66222
3.65594
3.65022
3.64506
3.64048
3.63647
3.63301
3.63007
3.62761
3.6256
3.62398
3.62272
3.62178
3.62113
3.62074
3.62061
3.62075
3.62116
3.62191
3.62295
3.6247
3.62587
3.87647
3.87973
3.88415
3.88566
3.88504
3.88192
3.87651
3.86907
3.86003
3.84986
3.83901
3.82786
3.8167
3.80572
3.79501
3.7846
3.77448
3.76461
3.75492
3.74539
3.73597
3.72666
3.71748
3.70844
3.6996
3.69101
3.68275
3.67487
3.66745
3.66054
3.65418
3.64842
3.64327
3.63873
3.6348
3.63144
3.62863
3.62632
3.62446
3.623
3.62188
3.62106
3.62051
3.62021
3.62013
3.62031
3.62076
3.62158
3.62272
3.62471
3.62608
3.87892
3.8824
3.88697
3.88817
3.88689
3.88286
3.87638
3.86787
3.85787
3.84694
3.83557
3.82416
3.81296
3.80214
3.79172
3.7817
3.77199
3.76252
3.7532
3.74395
3.73473
3.72552
3.71635
3.70724
3.69827
3.68951
3.68104
3.67296
3.66533
3.65824
3.65174
3.64588
3.64067
3.63613
3.63223
3.62896
3.62627
3.62411
3.62241
3.62112
3.62017
3.61952
3.61911
3.61892
3.61894
3.6192
3.61971
3.6206
3.62184
3.62402
3.62552
3.88338
3.88697
3.89146
3.89209
3.8899
3.88468
3.8769
3.86714
3.85605
3.84427
3.83234
3.82065
3.80942
3.79875
3.78864
3.779
3.76971
3.76064
3.75166
3.74267
3.73361
3.72447
3.71527
3.70604
3.69688
3.68787
3.67913
3.67075
3.66284
3.65549
3.64877
3.64273
3.6374
3.63279
3.62889
3.62566
3.62306
3.62103
3.61949
3.61837
3.61761
3.61713
3.61689
3.61685
3.61699
3.61734
3.61794
3.6189
3.62021
3.62252
3.62411
3.89025
3.89381
3.89796
3.89775
3.89436
3.88771
3.87844
3.86727
3.855
3.84233
3.82981
3.81781
3.80653
3.796
3.78617
3.77688
3.76796
3.75923
3.75053
3.74175
3.73281
3.72368
3.71439
3.70499
3.69558
3.68627
3.67718
3.66845
3.66018
3.6525
3.64548
3.63919
3.63366
3.62892
3.62495
3.62171
3.61915
3.61721
3.6158
3.61484
3.61425
3.61395
3.61388
3.61399
3.61427
3.61472
3.6154
3.61641
3.61777
3.62015
3.62178
3.90001
3.90338
3.90689
3.90557
3.90072
3.89242
3.88148
3.8688
3.85528
3.84167
3.82852
3.81618
3.80479
3.79433
3.78468
3.77564
3.76698
3.75849
3.74999
3.74133
3.73242
3.72324
3.71381
3.70418
3.69448
3.68482
3.67536
3.66622
3.65756
3.64948
3.64211
3.6355
3.62971
3.62476
3.62064
3.61732
3.61474
3.61283
3.6115
3.61065
3.6102
3.61005
3.61014
3.61039
3.61079
3.61134
3.61208
3.61314
3.61451
3.61688
3.61851
3.91319
3.91617
3.91871
3.91602
3.90946
3.89933
3.88661
3.87234
3.85752
3.84291
3.82907
3.81628
3.80465
3.7941
3.78445
3.77547
3.7669
3.75848
3.75003
3.74136
3.73239
3.72308
3.71346
3.70359
3.69358
3.68358
3.67373
3.66419
3.65511
3.64664
3.63888
3.63191
3.62581
3.62059
3.61626
3.61278
3.6101
3.60814
3.60681
3.60601
3.60564
3.60559
3.60577
3.60613
3.60662
3.60724
3.60802
3.60908
3.61044
3.61274
3.61433
3.93033
3.93268
3.93389
3.92958
3.92112
3.90903
3.89444
3.87852
3.86231
3.84659
3.8319
3.81847
3.80636
3.79545
3.78552
3.77632
3.76756
3.75898
3.75035
3.74152
3.73237
3.72287
3.71302
3.70291
3.69264
3.68234
3.67218
3.66231
3.65289
3.64406
3.63594
3.62863
3.62219
3.61667
3.61207
3.60837
3.6055
3.60341
3.60199
3.60114
3.60075
3.60072
3.60093
3.60133
3.60184
3.60248
3.60325
3.60428
3.60557
3.60776
3.60926
3.9519
3.95337
3.95286
3.94671
3.93622
3.92206
3.90552
3.88784
3.87011
3.85309
3.83728
3.82288
3.80991
3.79823
3.7876
3.77776
3.76842
3.75933
3.75026
3.74104
3.73158
3.72181
3.71175
3.70145
3.69102
3.68058
3.67027
3.66024
3.65065
3.64161
3.63327
3.6257
3.619
3.6132
3.60832
3.60434
3.60123
3.59891
3.5973
3.5963
3.59578
3.59564
3.59578
3.59611
3.59657
3.59714
3.59784
3.59877
3.59996
3.60199
3.60339
3.97825
3.97854
3.97592
3.96778
3.95512
3.93883
3.92023
3.90064
3.88114
3.86248
3.84512
3.82924
3.81484
3.80178
3.78985
3.77879
3.76835
3.75828
3.74839
3.73853
3.72858
3.71849
3.70824
3.69789
3.6875
3.67718
3.66703
3.65717
3.64773
3.63881
3.63052
3.62294
3.61616
3.61021
3.60512
3.60089
3.5975
3.59489
3.593
3.59171
3.59094
3.59057
3.5905
3.59063
3.59091
3.59131
3.59185
3.59263
3.59366
3.59549
3.59676
4.00948
4.00828
4.00318
3.9929
3.97801
3.95948
3.93867
3.9169
3.89523
3.8744
3.85483
3.83672
3.82007
3.80479
3.79072
3.77766
3.76539
3.75374
3.74253
3.73166
3.72102
3.71056
3.70022
3.69003
3.68001
3.67023
3.66073
3.65159
3.64285
3.63459
3.62687
3.61974
3.61325
3.60745
3.60238
3.59803
3.59442
3.59152
3.58927
3.5876
3.58644
3.58569
3.58524
3.58503
3.58498
3.58509
3.58536
3.58589
3.5867
3.5883
3.58944
4.04533
4.04234
4.03441
4.02192
4.0047
3.9838
3.96049
3.93609
3.91163
3.88783
3.86512
3.84371
3.8237
3.80508
3.78776
3.77164
3.75659
3.74252
3.72934
3.71698
3.70541
3.69451
3.6842
3.67448
3.66531
3.65668
3.64857
3.64095
3.63379
3.62706
3.62075
3.61484
3.60934
3.60428
3.59966
3.59553
3.59191
3.58881
3.58621
3.58411
3.58243
3.58114
3.58015
3.57942
3.57888
3.57853
3.57839
3.57858
3.5791
3.58044
3.58145
4.08511
4.08004
4.06896
4.05421
4.03455
4.01101
3.98476
3.95706
3.92889
3.90097
3.8738
3.84771
3.82289
3.79944
3.77742
3.75687
3.7378
3.72024
3.70422
3.68976
3.67688
3.66546
3.65535
3.64647
3.63875
3.63209
3.62635
3.62139
3.61703
3.61313
3.60951
3.60605
3.60268
3.59933
3.59601
3.59273
3.58956
3.58655
3.58376
3.58123
3.57899
3.57703
3.57533
3.57387
3.57264
3.57166
3.57097
3.57068
3.57084
3.57189
3.57278
4.12754
4.12014
4.10566
4.08857
4.06628
4.03971
4.00982
3.97778
3.94458
3.91103
3.87774
3.84516
3.81366
3.78353
3.75501
3.72833
3.70371
3.68134
3.66141
3.64407
3.6294
3.61729
3.60749
3.59986
3.59427
3.59053
3.58837
3.5875
3.58757
3.58822
3.5891
3.58989
3.59035
3.59029
3.58961
3.58832
3.58646
3.58416
3.58157
3.57882
3.57604
3.57333
3.57077
3.56841
3.56629
3.56448
3.56305
3.56215
3.56184
3.56258
3.56334
4.1707
4.16076
4.14265
4.12314
4.09793
4.06768
4.03306
3.99526
3.95535
3.91426
3.87274
3.83147
3.79106
3.75204
3.71492
3.68018
3.64827
3.61959
3.59453
3.57337
3.5563
3.54321
3.53376
3.5277
3.52487
3.52499
3.52768
3.53249
3.53885
3.54617
3.55384
3.56128
3.56796
3.57347
3.57753
3.58002
3.58096
3.5805
3.57889
3.5764
3.57332
3.56992
3.56642
3.56298
3.55977
3.55691
3.55456
3.55289
3.552
3.55236
3.55299
4.21196
4.19932
4.17744
4.15535
4.12662
4.09164
4.05088
4.00557
3.95689
3.90592
3.85372
3.80125
3.74944
3.69917
3.65126
3.60649
3.56556
3.5291
3.49768
3.47174
3.45155
3.43706
3.42781
3.42342
3.42375
3.42845
3.43707
3.44899
3.46348
3.47967
3.49668
3.51356
3.52945
3.54355
3.55527
3.56422
3.57028
3.57355
3.57433
3.57307
3.57028
3.56645
3.56205
3.55744
3.55295
3.54883
3.54534
3.54271
3.5411
3.54102
3.5415
4.24796
4.23254
4.20672
4.18163
4.14854
4.10754
4.05892
4.00398
3.94408
3.88065
3.8151
3.74884
3.68321
3.61949
3.55886
3.50239
3.45105
3.40565
3.3669
3.33536
3.31137
3.29496
3.28557
3.2827
3.28621
3.29576
3.31086
3.3308
3.35472
3.38158
3.41019
3.43927
3.46752
3.4937
3.51671
3.5357
3.55019
3.56006
3.56556
3.56725
3.56588
3.56228
3.55726
3.55151
3.54561
3.54004
3.53517
3.53138
3.52888
3.52825
3.52854
4.27461
4.25636
4.22636
4.19774
4.15925
4.11068
4.05214
3.98516
3.91144
3.83291
3.7515
3.66917
3.58776
3.50897
3.43435
3.36522
3.30273
3.24783
3.20129
3.16371
3.13548
3.1167
3.10676
3.10501
3.11134
3.12546
3.14688
3.17491
3.20865
3.24696
3.28851
3.33176
3.37501
3.41652
3.4546
3.48776
3.51487
3.53529
3.54895
3.55635
3.55841
3.55633
3.55138
3.54476
3.53745
3.53026
3.5238
3.5186
3.515
3.51366
3.5137
4.28728
4.26617
4.23179
4.19897
4.15383
4.09586
4.02518
3.9437
3.85371
3.75777
3.65855
3.5586
3.46032
3.36581
3.27689
3.19506
3.12156
3.05736
3.00324
2.95974
2.92723
2.90589
2.89505
2.89399
2.90259
2.92059
2.94757
2.98291
3.02578
3.07511
3.12953
3.18744
3.24693
3.30588
3.36203
3.41317
3.45732
3.49299
3.51936
3.53646
3.54513
3.54682
3.54334
3.53652
3.52802
3.51913
3.51085
3.50399
3.49905
3.49679
3.49647
4.28119
4.25726
4.21828
4.18042
4.12717
4.05788
3.97287
3.87471
3.76646
3.65158
3.53352
3.4155
3.30038
3.19058
3.08807
2.99442
2.91085
2.83828
2.77739
2.72863
2.69229
2.66845
2.65662
2.65607
2.66648
2.68763
2.71916
2.76058
2.81117
2.87002
2.93593
3.00739
3.08253
3.15911
3.23455
3.30607
3.37083
3.42625
3.47039
3.50225
3.52201
3.53099
3.53138
3.52576
3.51665
3.50618
3.49594
3.48713
3.48055
3.47707
3.47625
4.25139
4.2247
4.18086
4.13703
4.07425
3.99188
3.89073
3.77429
3.64669
3.51238
3.37562
3.24023
3.1094
2.98569
2.87113
2.76721
2.67507
2.59551
2.52906
2.47607
2.43668
2.41086
2.39831
2.39832
2.4103
2.43408
2.46933
2.51563
2.57242
2.63895
2.71425
2.79705
2.88573
2.97823
3.07201
3.16404
3.25094
3.32918
3.39549
3.4474
3.4837
3.50484
3.51284
3.51085
3.50241
3.49079
3.47855
3.46752
3.45894
3.45389
3.45237
4.19348
4.16417
4.11529
4.06458
3.9909
3.89396
3.77544
3.64001
3.49302
3.33994
3.18576
3.03469
2.89009
2.75452
2.62991
2.51763
2.41865
2.33363
2.26297
2.20689
2.16541
2.13843
2.1257
2.12647
2.14007
2.16627
2.20478
2.25519
2.31704
2.38969
2.4724
2.56415
2.66366
2.76923
2.87867
2.98914
3.0972
3.19882
3.28972
3.36584
3.4241
3.46315
3.48389
3.48933
3.48386
3.4721
3.45805
3.44458
3.43363
3.42654
3.42408
4.10299
4.07115
4.017
3.95869
3.87331
3.76112
3.62493
3.47087
3.30558
3.13546
2.966
2.80162
2.64565
2.50054
2.36803
2.24932
2.14522
2.05624
1.98265
1.92457
1.88194
1.8546
1.8423
1.84425
1.85972
1.88845
1.93011
1.98432
2.05061
2.12846
2.2172
2.31606
2.42402
2.53978
2.6616
2.78716
2.9134
3.03641
3.15152
3.25359
3.33769
3.40014
3.43958
3.45766
3.45879
3.44886
3.43364
3.41764
3.40394
3.39427
3.39055
3.97737
3.94333
3.88408
3.8176
3.7198
3.59204
3.43865
3.26726
3.08567
2.90098
2.71894
2.54392
2.37913
2.22678
2.08842
1.96507
1.85739
1.76577
1.69039
1.63129
1.58837
1.56142
1.55016
1.55377
1.57149
1.60302
1.648
1.70601
1.7766
1.85925
1.95335
2.05822
2.17304
2.29681
2.4282
2.56543
2.70608
2.84684
2.98333
3.11017
3.22127
3.31078
3.37447
3.41125
3.42405
3.41916
3.4042
3.38587
3.36907
3.35622
3.35088
3.81288
3.77666
3.7122
3.6376
3.52799
3.38578
3.21686
3.03042
2.83527
2.63892
2.44718
2.26424
2.09303
1.93556
1.79317
1.66673
1.55679
1.46366
1.38748
1.32823
1.28578
1.2599
1.25028
1.25608
1.2765
1.31122
1.35984
1.42191
1.49693
1.58437
1.68363
1.79405
1.91492
2.04539
2.18442
2.33068
2.48235
2.63686
2.79064
2.93878
3.07506
3.19237
3.2839
3.34505
3.37556
3.38036
3.36819
3.34826
3.32818
3.31151
3.30409
3.61018
3.57245
3.50359
3.42094
3.29956
3.14375
2.9612
2.76236
2.55664
2.35168
2.15307
1.96471
1.78926
1.62852
1.48365
1.35543
1.24435
1.15068
1.07454
1.01591
0.974645
0.950502
0.943118
0.951647
0.975289
1.01368
1.06638
1.13289
1.21268
1.30516
1.4097
1.52564
1.65227
1.78882
1.93441
2.088
2.24821
2.41316
2.58011
2.74512
2.90266
3.04553
3.16544
3.25465
3.30868
3.32897
3.32349
3.30357
3.28028
3.25913
3.24917
3.36538
3.32596
3.25264
3.16304
3.0323
2.86587
2.67291
2.46499
2.25195
2.04135
1.83848
1.64695
1.46915
1.30669
1.16066
1.03177
0.920507
0.827142
0.751812
0.694513
0.655114
0.633353
0.628826
0.640676
0.668111
0.71073
0.76805
0.839524
0.924551
1.02248
1.13264
1.25431
1.38677
1.52925
1.68093
1.84093
2.00814
2.18117
2.35802
2.53571
2.70982
2.87399
3.01982
3.13773
3.2193
3.26098
3.26737
3.25024
3.22436
3.19814
3.18514
3.0834
3.04337
2.96724
2.8713
2.73162
2.5559
2.35485
2.14072
1.92328
1.70971
1.50489
1.3121
1.13354
0.970696
0.824608
0.696005
0.585391
0.493096
0.419297
0.364029
0.327177
0.30847
0.307451
0.323263
0.355134
0.402624
0.465197
0.542246
0.633099
0.737037
0.853305
0.981126
1.11971
1.26826
1.42597
1.59198
1.76538
1.94503
2.12947
2.31653
2.50289
2.68345
2.85076
2.99496
3.10511
3.1727
3.19673
3.18645
3.15946
3.12777
3.11117
2.7584
2.71717
2.63795
2.53781
2.39322
2.21262
2.00763
1.7909
1.57209
1.35805
1.15332
0.960933
0.78296
0.620852
0.475664
0.348181
0.238983
0.148477
0.0769119
0.0243723
-0.00922824
-0.0241713
-0.0209769
-0.00049668
0.0365322
0.089623
0.158182
0.241528
0.338908
0.449518
0.572517
0.707045
0.852235
1.00722
1.17116
1.34318
1.52241
1.70791
1.8985
2.0926
2.28781
2.48028
2.66397
2.82997
2.96664
3.06193
3.10861
3.11027
3.08467
3.04741
3.0266
2.40031
2.35953
2.27972
2.17618
2.0269
1.84239
1.63524
1.41809
1.2001
0.987549
0.784563
0.593959
0.417718
0.25731
0.113861
-0.0117421
-0.11881
-0.206829
-0.275461
-0.324553
-0.354159
-0.364572
-0.356391
-0.330455
-0.287452
-0.227925
-0.152539
-0.0620592
0.0426667
0.160735
0.291207
0.433123
0.585526
0.747469
0.918028
1.0963
1.28141
1.47244
1.66842
1.86811
2.06977
2.27059
2.46598
2.64854
2.80743
2.9291
3.00126
3.02002
2.99949
2.9571
2.93156
1.99895
1.9573
1.87614
1.77229
1.62365
1.44063
1.23597
1.0221
0.807724
0.598738
0.399074
0.211485
0.0379842
-0.11987
-0.260822
-0.383842
-0.488097
-0.57294
-0.637925
-0.682818
-0.707632
-0.712676
-0.698649
-0.666369
-0.616463
-0.549541
-0.466356
-0.367777
-0.254761
-0.128324
0.0104789
0.160582
0.320925
0.490466
0.668199
0.853156
1.04441
1.24104
1.44215
1.64668
1.85331
2.05999
2.26334
2.4576
2.6335
2.7778
2.87532
2.91507
2.90407
2.85779
2.8271
1.57056
1.53042
1.45111
1.34737
1.19894
1.01761
0.816212
0.606642
0.396999
0.192723
-0.00254576
-0.186164
-0.35609
-0.510644
-0.648412
-0.768188
-0.868967
-0.949945
-1.01054
-1.05044
-1.06959
-1.06834
-1.0475
-1.00787
-0.94999
-0.874569
-0.782466
-0.674675
-0.552283
-0.41644
-0.268326
-0.109127
0.0599863
0.237876
0.423447
0.615658
0.813518
1.01608
1.22243
1.43162
1.64252
1.8536
2.06236
2.26446
2.45243
2.61444
2.7346
2.79689
2.79977
2.75166
2.71552
1.09715
1.05615
0.977456
0.878272
0.736541
0.562874
0.369749
0.168472
-0.033454
-0.230925
-0.420339
-0.598922
-0.764435
-0.91498
-1.04892
-1.16482
-1.26147
-1.33788
-1.39332
-1.42736
-1.4399
-1.43131
-1.40256
-1.35441
-1.28732
-1.20212
-1.09981
-0.981531
-0.848527
-0.702104
-0.543581
-0.374276
-0.19547
-0.0083976
0.185766
0.385909
0.590986
0.80001
1.01204
1.22613
1.44127
1.6562
1.86902
2.07644
2.27263
2.4476
2.58629
2.67011
2.69006
2.64276
2.60127
0.604236
0.565694
0.491039
0.395589
0.25934
0.0930317
-0.0919151
-0.285079
-0.479418
-0.669968
-0.853161
-1.0262
-1.18675
-1.33272
-1.46226
-1.5737
-1.66558
-1.7367
-1.78617
-1.81341
-1.81828
-1.80117
-1.76324
-1.70522
-1.62748
-1.53102
-1.41701
-1.28678
-1.14177
-0.98346
-0.813327
-0.632818
-0.443327
-0.246173
-0.0425983
0.166238
0.379254
0.595434
0.813813
1.03345
1.25336
1.47242
1.68906
1.90073
2.10287
2.28728
2.44042
2.5432
2.58157
2.53778
2.49171
0.0605987
0.0209627
-0.0505221
-0.135281
-0.258417
-0.411242
-0.582805
-0.76333
-0.946333
-1.12715
-1.30219
-1.46841
-1.6231
-1.76382
-1.88835
-1.99472
-2.08118
-2.14628
-2.18888
-2.20829
-2.20428
-2.1773
-2.1287
-2.05922
-1.96915
-1.85969
-1.73225
-1.58843
-1.42986
-1.25824
-1.07521
-0.88234
-0.681128
-0.472957
-0.259106
-0.0407496
0.181026
0.405212
0.630849
0.857002
1.08271
1.3069
1.52818
1.74447
1.95207
2.14427
2.30921
2.42842
2.48504
2.44728
2.39834
-0.492844
-0.529543
-0.595464
-0.672707
-0.784352
-0.923684
-1.08201
-1.25075
-1.42377
-1.59614
-1.76388
-1.92362
-2.07244
-2.20767
-2.32683
-2.42763
-2.50804
-2.56631
-2.60108
-2.61147
-2.59721
-2.55877
-2.49776
-2.41491
-2.3105
-2.18603
-2.04322
-1.88394
-1.71014
-1.52369
-1.32641
-1.12001
-0.906027
-0.685886
-0.460856
-0.232084
-0.000610582
0.232604
0.466653
0.700642
0.93365
1.16465
1.39236
1.61494
1.82932
2.02989
2.2063
2.34117
2.41584
2.38708
2.33803
-1.1097
-1.14746
-1.20583
-1.26417
-1.35582
-1.47609
-1.61636
-1.7685
-1.92672
-2.08636
-2.24345
-2.39441
-2.53585
-2.66458
-2.7776
-2.87216
-2.94578
-2.99633
-3.02215
-3.02215
-2.99598
-2.94423
-2.86872
-2.77022
-2.64909
-2.50725
-2.34685
-2.17011
-1.97926
-1.77643
-1.56358
-1.34247
-1.11469
-0.881604
-0.644432
-0.404228
-0.161936
0.0815871
0.325531
0.569093
0.811429
1.05158
1.28838
1.52016
1.74431
1.95606
2.14637
2.29912
2.39376
2.37895
2.33393
-1.72171
-1.75758
-1.81013
-1.85596
-1.92861
-2.02835
-2.1496
-2.28553
-2.43074
-2.5803
-2.72949
-2.87382
-3.00926
-3.13218
-3.23926
-3.32736
-3.39361
-3.43552
-3.4511
-3.43904
-3.39895
-3.33169
-3.23919
-3.12221
-2.98153
-2.81963
-2.63917
-2.44283
-2.23313
-2.01239
-1.78266
-1.54573
-1.30308
-1.056
-0.805557
-0.552648
-0.298066
-0.0425203
0.213319
0.468778
0.723132
0.975547
1.22498
1.46999
1.70832
1.93603
2.14534
2.3216
2.44209
2.45034
2.41561
-2.42181
-2.45626
-2.49209
-2.50813
-2.55376
-2.62933
-2.7284
-2.84425
-2.97141
-3.10498
-3.2404
-3.37322
-3.49911
-3.61378
-3.71315
-3.79339
-3.851
-3.88288
-3.88651
-3.86026
-3.80372
-3.71845
-3.60591
-3.46679
-3.30314
-3.11813
-2.91502
-2.69691
-2.46661
-2.22653
-1.97869
-1.72475
-1.46604
-1.20362
-0.938334
-0.670883
-0.401861
-0.131799
0.138789
0.409378
0.679386
0.94813
1.21475
1.47808
1.73631
1.98634
2.22184
2.43026
2.58703
2.63336
2.61829
-3.09008
-3.12785
-3.15969
-3.15464
-3.17177
-3.21921
-3.29323
-3.38766
-3.4972
-3.61718
-3.74286
-3.86888
-3.98943
-4.09903
-4.19277
-4.26619
-4.31519
-4.33611
-4.32599
-4.28296
-4.20674
-4.09971
-3.96303
-3.79762
-3.60725
-3.39594
-3.16762
-2.92574
-2.67322
-2.4124
-2.14509
-1.87265
-1.59609
-1.31619
-1.03352
-0.748537
-0.461644
-0.173206
0.116407
0.406798
0.697516
0.988033
1.2777
1.56565
1.85065
2.13057
2.40084
2.65199
2.85909
2.96474
2.98254
-3.89372
-3.91806
-3.91254
-3.86578
-3.85049
-3.87027
-3.91996
-3.993
-4.08304
-4.18458
-4.29277
-4.40279
-4.50946
-4.60708
-4.68973
-4.75173
-4.78799
-4.79408
-4.76636
-4.70245
-4.60205
-4.46797
-4.3018
-4.10554
-3.88453
-3.64388
-3.38805
-3.1206
-2.84423
-2.56088
-2.27192
-1.97827
-1.68054
-1.37918
-1.07451
-0.766804
-0.456316
-0.14331
0.171925
0.489061
0.807731
1.12752
1.44796
1.76851
2.0885
2.40692
2.72123
3.02614
3.29895
3.48995
3.55741
-4.61427
-4.65239
-4.64494
-4.5622
-4.50806
-4.4935
-4.51407
-4.56212
-4.63028
-4.71264
-4.80485
-4.90301
-5.00193
-5.09428
-5.1718
-5.22704
-5.2536
-5.24575
-5.19879
-5.1101
-4.98015
-4.81235
-4.60987
-4.37743
-4.12207
-3.8495
-3.56406
-3.26878
-2.96565
-2.65593
-2.34039
-2.01951
-1.6936
-1.36289
-1.0276
-0.687933
-0.344142
0.00350215
0.354691
0.709087
1.06633
1.42605
1.7879
2.15158
2.51689
2.88383
3.2519
3.62075
3.97282
4.27647
4.41275
-5.55246
-5.53902
-5.45132
-5.32198
-5.23521
-5.19406
-5.19347
-5.22501
-5.27968
-5.34921
-5.42641
-5.50559
-5.58244
-5.6523
-5.70837
-5.74175
-5.74309
-5.70453
-5.62111
-5.49161
-5.31935
-5.10869
-4.86429
-4.5931
-4.3016
-3.99454
-3.67513
-3.34539
-3.00659
-2.65952
-2.3047
-1.94253
-1.57335
-1.19751
-0.815344