# vtk DataFile Version 2.0
insac
ASCII
DATASET STRUCTURED_GRID
DIMENSIONS 101 101 1
POINTS 10201 float
0 0 0
0.01 0 0
0.02 0 0
0.03 0 0
0.04 0 0
0.05 0 0
0.06 0 0
0.07 0 0
0.08 0 0
0.09 0 0
0.1 0 0
0.11 0 0
0.12 0 0
0.13 0 0
0.14 0 0
0.15 0 0
0.16 0 0
0.17 0 0
0.18 0 0
0.19 0 0
0.2 0 0
0.21 0 0
0.22 0 0
0.23 0 0
0.24 0 0
0.25 0 0
0.26 0 0
0.27 0 0
0.28 0 0
0.29 0 0
0.3 0 0
0.31 0 0
0.32 0 0
0.33 0 0
0.34 0 0
0.35 0 0
0.36 0 0
0.37 0 0
0.38 0 0
0.39 0 0
0.4 0 0
0.41 0 0
0.42 0 0
0.43 0 0
0.44 0 0
0.45 0 0
0.46 0 0
0.47 0 0
0.48 0 0
0.49 0 0
0.5 0 0
0.51 0 0
0.52 0 0
0.53 0 0
0.54 0 0
0.55 0 0
0.56 0 0
0.57 0 0
0.58 0 0
0.59 0 0
0.6 0 0
0.61 0 0
0.62 0 0
0.63 0 0
0.64 0 0
0.65 0 0
0.66 0 0
0.67 0 0
0.68 0 0
0.69 0 0
0.7 0 0
0.71 0 0
0.72 0 0
0.73 0 0
0.74 0 0
0.75 0 0
0.76 0 0
0.77 0 0
0.78 0 0
0.79 0 0
0.8 0 0
0.81 0 0
0.82 0 0
0.83 0 0
0.84 0 0
0.85 0 0
0.86 0 0
0.87 0 0
0.88 0 0
0.89 0 0
0.9 0 0
0.91 0 0
0.92 0 0
0.93 0 0
0.94 0 0
0.95 0 0
0.96 0 0
0.97 0 0
0.98 0 0
0.99 0 0
1 0 0
0 0.01 0
0.01 0.01 0
0.02 0.01 0
0.03 0.01 0
0.04 0.01 0
0.05 0.01 0
0.06 0.01 0
0.07 0.01 0
0.08 0.01 0
0.09 0.01 0
0.1 0.01 0
0.11 0.01 0
0.12 0.01 0
0.13 0.01 0
0.14 0.01 0
0.15 0.01 0
0.16 0.01 0
0.17 0.01 0
0.18 0.01 0
0.19 0.01 0
0.2 0.01 0
0.21 0.01 0
0.22 0.01 0
0.23 0.01 0
0.24 0.01 0
0.25 0.01 0
0.26 0.01 0
0.27 0.01 0
0.28 0.01 0
0.29 0.01 0
0.3 0.01 0
0.31 0.01 0
0.32 0.01 0
0.33 0.01 0
0.34 0.01 0
0.35 0.01 0
0.36 0.01 0
0.37 0.01 0
0.38 0.01 0
0.39 0.01 0
0.4 0.01 0
0.41 0.01 0
0.42 0.01 0
0.43 0.01 0
0.44 0.01 0
0.45 0.01 0
0.46 0.01 0
0.47 0.01 0
0.48 0.01 0
0.49 0.01 0
0.5 0.01 0
0.51 0.01 0
0.52 0.01 0
0.53 0.01 0
0.54 0.01 0
0.55 0.01 0
0.56 0.01 0
0.57 0.01 0
0.58 0.01 0
0.59 0.01 0
0.6 0.01 0
0.61 0.01 0
0.62 0.01 0
0.63 0.01 0
0.64 0.01 0
0.65 0.01 0
0.66 0.01 0
0.67 0.01 0
0.68 0.01 0
0.69 0.01 0
0.7 0.01 0
0.71 0.01 0
0.72 0.01 0
0.73 0.01 0
0.74 0.01 0
0.75 0.01 0
0.76 0.01 0
0.77 0.01 0
0.78 0.01 0
0.79 0.01 0
0.8 0.01 0
0.81 0.01 0
0.82 0.01 0
0.83 0.01 0
0.84 0.01 0
0.85 0.01 0
0.86 0.01 0
0.87 0.01 0
0.88 0.01 0
0.89 0.01 0
0.9 0.01 0
0.91 0.01 0
0.92 0.01 0
0.93 0.01 0
0.94 0.01 0
0.95 0.01 0
0.96 0.01 0
0.97 0.01 0
0.98 0.01 0
0.99 0.01 0
1 0.01 0
0 0.02 0
0.01 0.02 0
0.02 0.02 0
0.03 0.02 0
0.04 0.02 0
0.05 0.02 0
0.06 0.02 0
0.07 0.02 0
0.08 0.02 0
0.09 0.02 0
0.1 0.02 0
0.11 0.02 0
0.12 0.02 0
0.13 0.02 0
0.14 0.02 0
0.15 0.02 0
0.16 0.02 0
0.17 0.02 0
0.18 0.02 0
0.19 0.02 0
0.2 0.02 0
0.21 0.02 0
0.22 0.02 0
0.23 0.02 0
0.24 0.02 0
0.25 0.02 0
0.26 0.02 0
0.27 0.02 0
0.28 0.02 0
0.29 0.02 0
0.3 0.02 0
0.31 0.02 0
0.32 0.02 0
0.33 0.02 0
0.34 0.02 0
0.35 0.02 0
0.36 0.02 0
0.37 0.02 0
0.38 0.02 0
0.39 0.02 0
0.4 0.02 0
0.41 0.02 0
0.42 0.02 0
0.43 0.02 0
0.44 0.02 0
0.45 0.02 0
0.46 0.02 0
0.47 0.02 0
0.48 0.02 0
0.49 0.02 0
0.5 0.02 0
0.51 0.02 0
0.52 0.02 0
0.53 0.02 0
0.54 0.02 0
0.55 0.02 0
0.56 0.02 0
0.57 0.02 0
0.58 0.02 0
0.59 0.02 0
0.6 0.02 0
0.61 0.02 0
0.62 0.02 0
0.63 0.02 0
0.64 0.02 0
0.65 0.02 0
0.66 0.02 0
0.67 0.02 0
0.68 0.02 0
0.69 0.02 0
0.7 0.02 0
0.71 0.02 0
0.72 0.02 0
0.73 0.02 0
0.74 0.02 0
0.75 0.02 0
0.76 0.02 0
0.77 0.02 0
0.78 0.02 0
0.79 0.02 0
0.8 0.02 0
0.81 0.02 0
0.82 0.02 0
0.83 0.02 0
0.84 0.02 0
0.85 0.02 0
0.86 0.02 0
0.87 0.02 0
0.88 0.02 0
0.89 0.02 0
0.9 0.02 0
0.91 0.02 0
0.92 0.02 0
0.93 0.02 0
0.94 0.02 0
0.95 0.02 0
0.96 0.02 0
0.97 0.02 0
0.98 0.02 0
0.99 0.02 0
1 0.02 0
0 0.03 0
0.01 0.03 0
0.02 0.03 0
0.03 0.03 0
0.04 0.03 0
0.05 0.03 0
0.06 0.03 0
0.07 0.03 0
0.08 0.03 0
0.09 0.03 0
0.1 0.03 0
0.11 0.03 0
0.12 0.03 0
0.13 0.03 0
0.14 0.03 0
0.15 0.03 0
0.16 0.03 0
0.17 0.03 0
0.18 0.03 0
0.19 0.03 0
0.2 0.03 0
0.21 0.03 0
0.22 0.03 0
0.23 0.03 0
0.24 0.03 0
0.25 0.03 0
0.26 0.03 0
0.27 0.03 0
0.28 0.03 0
0.29 0.03 0
0.3 0.03 0
0.31 0.03 0
0.32 0.03 0
0.33 0.03 0
0.34 0.03 0
0.35 0.03 0
0.36 0.03 0
0.37 0.03 0
0.38 0.03 0
0.39 0.03 0
0.4 0.03 0
0.41 0.03 0
0.42 0.03 0
0.43 0.03 0
0.44 0.03 0
0.45 0.03 0
0.46 0.03 0
0.47 0.03 0
0.48 0.03 0
0.49 0.03 0
0.5 0.03 0
0.51 0.03 0
0.52 0.03 0
0.53 0.03 0
0.54 0.03 0
0.55 0.03 0
0.56 0.03 0
0.57 0.03 0
0.58 0.03 0
0.59 0.03 0
0.6 0.03 0
0.61 0.03 0
0.62 0.03 0
0.63 0.03 0
0.64 0.03 0
0.65 0.03 0
0.66 0.03 0
0.67 0.03 0
0.68 0.03 0
0.69 0.03 0
0.7 0.03 0
0.71 0.03 0
0.72 0.03 0
0.73 0.03 0
0.74 0.03 0
0.75 0.03 0
0.76 0.03 0
0.77 0.03 0
0.78 0.03 0
0.79 0.03 0
0.8 0.03 0
0.81 0.03 0
0.82 0.03 0
0.83 0.03 0
0.84 0.03 0
0.85 0.03 0
0.86 0.03 0
0.87 0.03 0
0.88 0.03 0
0.89 0.03 0
0.9 0.03 0
0.91 0.03 0
0.92 0.03 0
0.93 0.03 0
0.94 0.03 0
0.95 0.03 0
0.96 0.03 0
0.97 0.03 0
0.98 0.03 0
0.99 0.03 0
1 0.03 0
0 0.04 0
0.01 0.04 0
0.02 0.04 0
0.03 0.04 0
0.04 0.04 0
0.05 0.04 0
0.06 0.04 0
0.07 0.04 0
0.08 0.04 0
0.09 0.04 0
0.1 0.04 0
0.11 0.04 0
0.12 0.04 0
0.13 0.04 0
0.14 0.04 0
0.15 0.04 0
0.16 0.04 0
0.17 0.04 0
0.18 0.04 0
0.19 0.04 0
0.2 0.04 0
0.21 0.04 0
0.22 0.04 0
0.23 0.04 0
0.24 0.04 0
0.25 0.04 0
0.26 0.04 0
0.27 0.04 0
0.28 0.04 0
0.29 0.04 0
0.3 0.04 0
0.31 0.04 0
0.32 0.04 0
0.33 0.04 0
0.34 0.04 0
0.35 0.04 0
0.36 0.04 0
0.37 0.04 0
0.38 0.04 0
0.39 0.04 0
0.4 0.04 0
0.41 0.04 0
0.42 0.04 0
0.43 0.04 0
0.44 0.04 0
0.45 0.04 0
0.46 0.04 0
0.47 0.04 0
0.48 0.04 0
0.49 0.04 0
0.5 0.04 0
0.51 0.04 0
0.52 0.04 0
0.53 0.04 0
0.54 0.04 0
0.55 0.04 0
0.56 0.04 0
0.57 0.04 0
0.58 0.04 0
0.59 0.04 0
0.6 0.04 0
0.61 0.04 0
0.62 0.04 0
0.63 0.04 0
0.64 0.04 0
0.65 0.04 0
0.66 0.04 0
0.67 0.04 0
0.68 0.04 0
0.69 0.04 0
0.7 0.04 0
0.71 0.04 0
0.72 0.04 0
0.73 0.04 0
0.74 0.04 0
0.75 0.04 0
0.76 0.04 0
0.77 0.04 0
0.78 0.04 0
0.79 0.04 0
0.8 0.04 0
0.81 0.04 0
0.82 0.04 0
0.83 0.04 0
0.84 0.04 0
0.85 0.04 0
0.86 0.04 0
0.87 0.04 0
0.88 0.04 0
0.89 0.04 0
0.9 0.04 0
0.91 0.04 0
0.92 0.04 0
0.93 0.04 0
0.94 0.04 0
0.95 0.04 0
0.96 0.04 0
0.97 0.04 0
0.98 0.04 0
0.99 0.04 0
1 0.04 0
0 0.05 0
0.01 0.05 0
0.02 0.05 0
0.03 0.05 0
0.04 0.05 0
0.05 0.05 0
0.06 0.05 0
0.07 0.05 0
0.08 0.05 0
0.09 0.05 0
0.1 0.05 0
0.11 0.05 0
0.12 0.05 0
0.13 0.05 0
0.14 0.05 0
0.15 0.05 0
0.16 0.05 0
0.17 0.05 0
0.18 0.05 0
0.19 0.05 0
0.2 0.05 0
0.21 0.05 0
0.22 0.05 0
0.23 0.05 0
0.24 0.05 0
0.25 0.05 0
0.26 0.05 0
0.27 0.05 0
0.28 0.05 0
0.29 0.05 0
0.3 0.05 0
0.31 0.05 0
0.32 0.05 0
0.33 0.05 0
0.34 0.05 0
0.35 0.05 0
0.36 0.05 0
0.37 0.05 0
0.38 0.05 0
0.39 0.05 0
0.4 0.05 0
0.41 0.05 0
0.42 0.05 0
0.43 0.05 0
0.44 0.05 0
0.45 0.05 0
0.46 0.05 0
0.47 0.05 0
0.48 0.05 0
0.49 0.05 0
0.5 0.05 0
0.51 0.05 0
0.52 0.05 0
0.53 0.05 0
0.54 0.05 0
0.55 0.05 0
0.56 0.05 0
0.57 0.05 0
0.58 0.05 0
0.59 0.05 0
0.6 0.05 0
0.61 0.05 0
0.62 0.05 0
0.63 0.05 0
0.64 0.05 0
0.65 0.05 0
0.66 0.05 0
0.67 0.05 0
0.68 0.05 0
0.69 0.05 0
0.7 0.05 0
0.71 0.05 0
0.72 0.05 0
0.73 0.05 0
0.74 0.05 0
0.75 0.05 0
0.76 0.05 0
0.77 0.05 0
0.78 0.05 0
0.79 0.05 0
0.8 0.05 0
0.81 0.05 0
0.82 0.05 0
0.83 0.05 0
0.84 0.05 0
0.85 0.05 0
0.86 0.05 0
0.87 0.05 0
0.88 0.05 0
0.89 0.05 0
0.9 0.05 0
0.91 0.05 0
0.92 0.05 0
0.93 0.05 0
0.94 0.05 0
0.95 0.05 0
0.96 0.05 0
0.97 0.05 0
0.98 0.05 0
0.99 0.05 0
1 0.05 0
0 0.06 0
0.01 0.06 0
0.02 0.06 0
0.03 0.06 0
0.04 0.06 0
0.05 0.06 0
0.06 0.06 0
0.07 0.06 0
0.08 0.06 0
0.09 0.06 0
0.1 0.06 0
0.11 0.06 0
0.12 0.06 0
0.13 0.06 0
0.14 0.06 0
0.15 0.06 0
0.16 0.06 0
0.17 0.06 0
0.18 0.06 0
0.19 0.06 0
0.2 0.06 0
0.21 0.06 0
0.22 0.06 0
0.23 0.06 0
0.24 0.06 0
0.25 0.06 0
0.26 0.06 0
0.27 0.06 0
0.28 0.06 0
0.29 0.06 0
0.3 0.06 0
0.31 0.06 0
0.32 0.06 0
0.33 0.06 0
0.34 0.06 0
0.35 0.06 0
0.36 0.06 0
0.37 0.06 0
0.38 0.06 0
0.39 0.06 0
0.4 0.06 0
0.41 0.06 0
0.42 0.06 0
0.43 0.06 0
0.44 0.06 0
0.45 0.06 0
0.46 0.06 0
0.47 0.06 0
0.48 0.06 0
0.49 0.06 0
0.5 0.06 0
0.51 0.06 0
0.52 0.06 0
0.53 0.06 0
0.54 0.06 0
0.55 0.06 0
0.56 0.06 0
0.57 0.06 0
0.58 0.06 0
0.59 0.06 0
0.6 0.06 0
0.61 0.06 0
0.62 0.06 0
0.63 0.06 0
0.64 0.06 0
0.65 0.06 0
0.66 0.06 0
0.67 0.06 0
0.68 0.06 0
0.69 0.06 0
0.7 0.06 0
0.71 0.06 0
0.72 0.06 0
0.73 0.06 0
0.74 0.06 0
0.75 0.06 0
0.76 0.06 0
0.77 0.06 0
0.78 0.06 0
0.79 0.06 0
0.8 0.06 0
0.81 0.06 0
0.82 0.06 0
0.83 0.06 0
0.84 0.06 0
0.85 0.06 0
0.86 0.06 0
0.87 0.06 0
0.88 0.06 0
0.89 0.06 0
0.9 0.06 0
0.91 0.06 0
0.92 0.06 0
0.93 0.06 0
0.94 0.06 0
0.95 0.06 0
0.96 0.06 0
0.97 0.06 0
0.98 0.06 0
0.99 0.06 0
1 0.06 0
0 0.07 0
0.01 0.07 0
0.02 0.07 0
0.03 0.07 0
0.04 0.07 0
0.05 0.07 0
0.06 0.07 0
0.07 0.07 0
0.08 0.07 0
0.09 0.07 0
0.1 0.07 0
0.11 0.07 0
0.12 0.07 0
0.13 0.07 0
0.14 0.07 0
0.15 0.07 0
0.16 0.07 0
0.17 0.07 0
0.18 0.07 0
0.19 0.07 0
0.2 0.07 0
0.21 0.07 0
0.22 0.07 0
0.23 0.07 0
0.24 0.07 0
0.25 0.07 0
0.26 0.07 0
0.27 0.07 0
0.28 0.07 0
0.29 0.07 0
0.3 0.07 0
0.31 0.07 0
0.32 0.07 0
0.33 0.07 0
0.34 0.07 0
0.35 0.07 0
0.36 0.07 0
0.37 0.07 0
0.38 0.07 0
0.39 0.07 0
0.4 0.07 0
0.41 0.07 0
0.42 0.07 0
0.43 0.07 0
0.44 0.07 0
0.45 0.07 0
0.46 0.07 0
0.47 0.07 0
0.48 0.07 0
0.49 0.07 0
0.5 0.07 0
0.51 0.07 0
0.52 0.07 0
0.53 0.07 0
0.54 0.07 0
0.55 0.07 0
0.56 0.07 0
0.57 0.07 0
0.58 0.07 0
0.59 0.07 0
0.6 0.07 0
0.61 0.07 0
0.62 0.07 0
0.63 0.07 0
0.64 0.07 0
0.65 0.07 0
0.66 0.07 0
0.67 0.07 0
0.68 0.07 0
0.69 0.07 0
0.7 0.07 0
0.71 0.07 0
0.72 0.07 0
0.73 0.07 0
0.74 0.07 0
0.75 0.07 0
0.76 0.07 0
0.77 0.07 0
0.78 0.07 0
0.79 0.07 0
0.8 0.07 0
0.81 0.07 0
0.82 0.07 0
0.83 0.07 0
0.84 0.07 0
0.85 0.07 0
0.86 0.07 0
0.87 0.07 0
0.88 0.07 0
0.89 0.07 0
0.9 0.07 0
0.91 0.07 0
0.92 0.07 0
0.93 0.07 0
0.94 0.07 0
0.95 0.07 0
0.96 0.07 0
0.97 0.07 0
0.98 0.07 0
0.99 0.07 0
1 0.07 0
0 0.08 0
0.01 0.08 0
0.02 0.08 0
0.03 0.08 0
0.04 0.08 0
0.05 0.08 0
0.06 0.08 0
0.07 0.08 0
0.08 0.08 0
0.09 0.08 0
0.1 0.08 0
0.11 0.08 0
0.12 0.08 0
0.13 0.08 0
0.14 0.08 0
0.15 0.08 0
0.16 0.08 0
0.17 0.08 0
0.18 0.08 0
0.19 0.08 0
0.2 0.08 0
0.21 0.08 0
0.22 0.08 0
0.23 0.08 0
0.24 0.08 0
0.25 0.08 0
0.26 0.08 0
0.27 0.08 0
0.28 0.08 0
0.29 0.08 0
0.3 0.08 0
0.31 0.08 0
0.32 0.08 0
0.33 0.08 0
0.34 0.08 0
0.35 0.08 0
0.36 0.08 0
0.37 0.08 0
0.38 0.08 0
0.39 0.08 0
0.4 0.08 0
0.41 0.08 0
0.42 0.08 0
0.43 0.08 0
0.44 0.08 0
0.45 0.08 0
0.46 0.08 0
0.47 0.08 0
0.48 0.08 0
0.49 0.08 0
0.5 0.08 0
0.51 0.08 0
[...]
POINT_DATA 10201
SCALARS pressure float 1
LOOKUP_TABLE default
0.01491
0.0149287
0.0149505
0.0149355
0.0148768
0.0147783
0.0146503
0.014502
0.0143406
0.0141713
0.0139988
0.0138276
0.0136611
0.0135016
0.0133511
0.0132113
0.0130836
0.0129692
0.0128687
0.012783
0.0127125
0.0126578
0.0126198
0.012599
0.0125934
0.0126017
0.0126264
0.0126689
0.0127284
0.0128045
0.0128971
0.0130064
0.0131322
0.0132744
0.0134331
0.013608
0.013799
0.0140058
0.0142281
0.0144657
0.014718
0.0149846
0.0152647
0.0155578
0.015863
0.0161794
0.0165059
0.0168416
0.0171851
0.0175351
0.0178901
0.0182487
0.0186097
0.0189713
0.0193311
0.0196875
0.0200387
0.0203827
0.0207178
0.0210419
0.0213531
0.0216495
0.0219294
0.0221911
0.0224328
0.0226531
0.0228505
0.0230239
0.0231722
0.0232946
0.0233904
0.0234582
0.0234965
0.0235082
0.0234974
0.0234614
0.0233977
0.0233082
0.0231953
0.0230606
0.0229057
0.0227328
0.022544
0.022342
0.0221292
0.0219086
0.0216828
0.0214552
0.0212298
0.0210104
0.0208002
0.0206033
0.0204239
0.0202667
0.0201364
0.0200379
0.019976
0.0199505
0.0199601
0.0199979
0.0200219
0.0149243
0.0149407
0.0149582
0.0149412
0.0148847
0.0147919
0.0146721
0.0145332
0.0143816
0.0142222
0.0140594
0.0138974
0.0137394
0.0135876
0.0134441
0.0133106
0.0131885
0.013079
0.0129828
0.0129006
0.0128331
0.0127808
0.0127445
0.0127247
0.0127198
0.0127286
0.0127533
0.0127953
0.0128537
0.0129283
0.0130191
0.013126
0.013249
0.0133882
0.0135433
0.0137142
0.0139008
0.0141029
0.01432
0.014552
0.0147983
0.0150584
0.0153317
0.0156176
0.0159152
0.0162237
0.016542
0.0168692
0.0172039
0.0175449
0.0178907
0.01824
0.0185916
0.0189435
0.0192937
0.0196405
0.0199822
0.0203169
0.0206428
0.020958
0.0212607
0.0215491
0.0218213
0.0220758
0.0223109
0.0225253
0.0227174
0.0228863
0.0230308
0.0231501
0.0232437
0.0233105
0.0233488
0.0233612
0.0233516
0.0233176
0.0232569
0.0231715
0.0230636
0.0229346
0.0227864
0.0226208
0.02244
0.0222465
0.0220429
0.0218318
0.0216159
0.0213985
0.0211834
0.0209739
0.0207734
0.0205857
0.0204148
0.020265
0.0201405
0.0200456
0.0199847
0.0199576
0.0199632
0.0199961
0.0200177
0.014971
0.0149828
0.0149918
0.0149702
0.0149165
0.0148336
0.0147284
0.0146065
0.0144729
0.0143319
0.0141872
0.0140424
0.0139004
0.0137636
0.0136337
0.0135126
0.0134015
0.0133016
0.0132137
0.0131388
0.0130772
0.0130295
0.0129967
0.0129791
0.0129755
0.0129852
0.0130099
0.0130507
0.0131069
0.0131784
0.0132651
0.0133672
0.0134846
0.0136173
0.013765
0.0139278
0.0141054
0.0142976
0.0145041
0.0147246
0.0149586
0.0152056
0.0154651
0.0157364
0.0160187
0.0163112
0.016613
0.016923
0.0172401
0.017563
0.0178904
0.0182212
0.0185539
0.0188866
0.0192177
0.0195455
0.0198684
0.0201846
0.0204925
0.0207902
0.0210761
0.0213485
0.0216057
0.0218461
0.0220683
0.0222709
0.0224527
0.0226126
0.0227496
0.0228631
0.0229524
0.0230169
0.0230551
0.0230689
0.0230614
0.0230312
0.0229764
0.0228989
0.0228004
0.0226826
0.022547
0.0223955
0.02223
0.022053
0.0218667
0.0216739
0.0214769
0.0212788
0.021083
0.0208926
0.0207105
0.0205404
0.0203857
0.0202497
0.0201357
0.0200473
0.0199879
0.0199583
0.0199578
0.0199832
0.0200014
0.0150539
0.0150607
0.0150605
0.0150327
0.0149781
0.0149003
0.0148043
0.0146941
0.0145735
0.0144459
0.0143146
0.014183
0.0140539
0.0139292
0.0138106
0.0136998
0.0135981
0.0135065
0.013426
0.0133572
0.0133008
0.0132573
0.0132276
0.0132121
0.0132096
0.0132198
0.0132443
0.0132838
0.0133377
0.0134061
0.013489
0.0135864
0.0136983
0.0138246
0.0139653
0.0141203
0.0142893
0.0144722
0.0146687
0.0148784
0.015101
0.0153359
0.0155826
0.0158405
0.0161088
0.0163869
0.0166736
0.0169682
0.0172694
0.0175761
0.017887
0.0182012
0.0185171
0.0188331
0.0191474
0.0194586
0.0197651
0.0200653
0.0203576
0.0206402
0.0209116
0.0211702
0.0214143
0.0216427
0.0218537
0.0220463
0.0222192
0.0223714
0.022502
0.0226103
0.022696
0.0227583
0.0227961
0.0228107
0.0228049
0.0227779
0.022728
0.0226567
0.022566
0.0224571
0.0223317
0.0221915
0.0220384
0.0218745
0.0217022
0.0215238
0.0213418
0.0211588
0.0209781
0.0208026
0.0206352
0.020479
0.0203368
0.0202115
0.0201055
0.0200218
0.0199635
0.0199319
0.0199273
0.0199483
0.0199647
0.0151709
0.0151712
0.0151593
0.0151226
0.0150637
0.0149863
0.0148939
0.0147897
0.0146767
0.0145578
0.014436
0.0143141
0.0141945
0.014079
0.0139692
0.0138666
0.0137724
0.0136876
0.013613
0.0135494
0.0134973
0.0134572
0.0134301
0.0134162
0.0134146
0.013425
0.013449
0.0134871
0.0135389
0.0136043
0.0136835
0.0137764
0.0138832
0.0140037
0.014138
0.0142857
0.014447
0.0146214
0.0148088
0.0150088
0.0152211
0.0154453
0.0156807
0.0159268
0.016183
0.0164483
0.0167221
0.0170033
0.017291
0.0175836
0.0178805
0.0181806
0.0184823
0.0187841
0.0190844
0.0193817
0.0196747
0.0199616
0.0202409
0.0205111
0.0207706
0.0210178
0.0212514
0.0214698
0.0216718
0.0218562
0.0220218
0.0221677
0.022293
0.0223971
0.0224797
0.0225402
0.0225774
0.0225924
0.0225879
0.0225632
0.022517
0.0224505
0.0223655
0.0222634
0.0221457
0.022014
0.0218701
0.0217162
0.0215543
0.0213868
0.021216
0.0210442
0.0208745
0.0207098
0.0205526
0.0204057
0.0202716
0.0201529
0.020052
0.0199711
0.0199125
0.0198785
0.0198702
0.0198867
0.0199011
0.0153179
0.0153098
0.0152821
0.0152337
0.0151681
0.015088
0.0149958
0.0148942
0.0147859
0.0146732
0.0145586
0.0144444
0.0143326
0.0142247
0.0141223
0.0140267
0.013939
0.01386
0.0137907
0.0137316
0.0136832
0.0136462
0.0136213
0.0136088
0.0136078
0.0136182
0.0136415
0.0136781
0.0137275
0.0137899
0.0138654
0.0139539
0.0140556
0.0141703
0.0142981
0.0144389
0.0145924
0.0147586
0.0149372
0.0151279
0.0153304
0.0155441
0.0157688
0.0160037
0.0162482
0.0165016
0.0167632
0.0170319
0.0173066
0.0175864
0.0178706
0.0181576
0.0184462
0.0187351
0.0190226
0.0193075
0.0195881
0.019863
0.0201308
0.0203898
0.0206386
0.0208758
0.0210999
0.0213096
0.0215036
0.0216807
0.0218399
0.0219802
0.0221009
0.0222013
0.0222811
0.0223398
0.0223763
0.0223914
0.0223879
0.0223651
0.0223218
0.0222592
0.022179
0.0220825
0.0219711
0.0218464
0.0217102
0.0215644
0.0214111
0.0212524
0.0210906
0.0209279
0.0207671
0.0206107
0.0204611
0.0203206
0.0201919
0.0200772
0.0199787
0.0198983
0.0198379
0.0198005
0.0197872
0.0197978
0.0198091
0.0154893
0.0154711
0.0154246
0.0153619
0.0152876
0.0152025
0.0151081
0.0150067
0.0149005
0.0147914
0.0146816
0.0145728
0.0144668
0.0143648
0.0142684
0.0141785
0.0140961
0.0140221
0.0139571
0.0139018
0.0138566
0.0138221
0.013799
0.0137876
0.0137869
0.013797
0.0138194
0.0138542
0.0139013
0.0139605
0.0140322
0.0141163
0.0142129
0.0143219
0.0144434
0.0145773
0.0147234
0.0148816
0.0150517
0.0152334
0.0154264
0.0156304
0.0158448
0.0160692
0.0163029
0.0165452
0.0167954
0.0170524
0.0173151
0.0175835
0.0178562
0.0181314
0.0184083
0.0186855
0.0189617
0.0192354
0.0195052
0.0197697
0.0200273
0.0202766
0.0205162
0.0207447
0.0209606
0.0211628
0.0213499
0.0215208
0.0216745
0.0218101
0.0219267
0.0220239
0.0221013
0.0221584
0.0221941
0.0222093
0.0222064
0.022185
0.022144
0.0220844
0.0220078
0.0219156
0.0218091
0.0216899
0.0215596
0.0214201
0.0212733
0.0211213
0.0209661
0.0208101
0.0206557
0.0205051
0.0203607
0.0202245
0.020099
0.0199862
0.0198881
0.0198064
0.0197429
0.0197002
0.0196802
0.0196829
0.01969
0.0156789
0.0156499
0.0155828
0.0155039
0.0154191
0.015327
0.0152282
0.0151248
0.0150185
0.014911
0.0148039
0.0146987
0.0145968
0.0144993
0.0144074
0.014322
0.0142439
0.0141739
0.0141126
0.0140604
0.0140178
0.0139851
0.0139634
0.0139527
0.013952
0.0139616
0.0139828
0.0140157
0.0140602
0.0141162
0.014184
0.0142636
0.0143551
0.0144585
0.0145738
0.0147009
0.0148397
0.0149901
0.015152
0.0153252
0.0155092
0.0157038
0.0159086
0.0161231
0.0163466
0.0165785
0.0168179
0.0170639
0.0173163
0.0175744
0.0178363
0.0181009
0.0183673
0.0186342
0.0189002
0.0191641
0.0194244
0.0196798
0.0199286
0.0201695
0.0204012
0.0206222
0.0208313
0.021027
0.0212083
0.021374
0.0215231
0.0216547
0.021768
0.0218625
0.0219378
0.0219935
0.0220286
0.0220436
0.0220411
0.0220208
0.0219814
0.021924
0.0218502
0.0217612
0.0216584
0.0215432
0.0214172
0.0212823
0.0211402
0.020993
0.0208426
0.020691
0.0205408
0.0203939
0.0202525
0.0201186
0.0199942
0.0198813
0.0197818
0.0196972
0.0196292
0.0195796
0.0195508
0.0195439
0.0195459
0.0158813
0.015841
0.015752
0.0156561
0.0155594
0.0154584
0.0153535
0.0152463
0.0151382
0.0150305
0.0149244
0.0148212
0.0147219
0.0146275
0.0145389
0.0144569
0.0143822
0.0143153
0.0142567
0.014207
0.0141663
0.0141351
0.0141142
0.0141038
0.0141029
0.0141116
0.0141312
0.014162
0.0142037
0.0142564
0.0143203
0.0143953
0.0144817
0.0145795
0.0146886
0.014809
0.0149407
0.0150837
0.0152376
0.0154025
0.015578
0.0157638
0.0159594
0.0161644
0.0163782
0.0166
0.0168294
0.0170661
0.0173094
0.0175578
0.0178099
0.018065
0.018322
0.0185798
0.018837
0.0190922
0.0193442
0.0195917
0.0198331
0.0200669
0.020292
0.0205068
0.02071
0.0209005
0.0210771
0.0212385
0.0213838
0.0215122
0.0216228
0.0217151
0.0217888
0.0218433
0.0218778
0.0218927
0.0218904
0.0218708
0.0218326
0.0217767
0.0217048
0.0216181
0.0215179
0.0214054
0.0212824
0.0211506
0.0210116
0.0208674
0.0207199
0.020571
0.020423
0.0202778
0.0201374
0.0200037
0.0198786
0.0197639
0.0196612
0.0195722
0.0194982
0.0194406
0.0194015
0.0193828
0.0193786
0.016092
0.0160398
0.0159285
0.015815
0.0157054
0.015594
0.0154816
0.0153691
0.0152577
0.0151482
0.0150417
0.0149391
0.0148411
0.0147486
0.0146623
0.0145827
0.0145103
0.0144457
0.0143892
0.0143412
0.0143019
0.0142716
0.014251
0.0142404
0.014239
0.0142465
0.0142643
0.0142927
0.0143315
0.0143806
0.0144404
0.0145108
0.0145921
0.0146842
0.0147871
0.014901
0.0150258
0.0151615
0.0153078
0.0154647
0.0156319
0.0158091
0.0159958
0.0161916
0.0163962
0.0166091
0.0168301
0.0170585
0.0172929
0.0175323
0.0177756
0.0180223
0.018271
0.0185209
0.0187704
0.0190182
0.0192631
0.0195038
0.0197389
0.0199669
0.0201866
0.0203963
0.020595
0.0207813
0.0209541
0.0211122
0.0212547
0.0213806
0.0214892
0.0215799
0.0216523
0.021706
0.02174
0.0217548
0.0217526
0.0217335
0.0216961
0.0216412
0.0215705
0.0214853
0.0213866
0.0212758
0.0211545
0.0210243
0.020887
0.0207443
0.0205981
0.0204501
0.0203025
0.0201573
0.0200161
0.0198809
0.0197534
0.0196351
0.0195278
0.0194329
0.0193516
0.019285
0.0192341
0.0192017
0.0191906
0.016307
0.0162428
0.0161087
0.0159771
0.0158538
0.015731
0.0156099
0.015491
0.015375
0.0152626
0.0151545
0.0150512
0.0149535
0.0148618
0.0147767
0.0146985
0.0146277
0.0145646
0.0145094
0.0144624
0.0144239
0.014394
0.0143732
0.0143621
0.0143597
0.0143658
0.0143814
0.0144071
0.0144427
0.0144882
0.0145437
0.0146094
0.0146854
0.0147719
0.0148688
0.0149763
0.0150943
0.0152227
0.0153615
0.0155105
0.0156694
0.0158381
0.0160163
0.0162038
0.0164005
0.0166059
0.0168191
0.0170392
0.0172652
0.0174965
0.0177322
0.0179714
0.0182129
0.0184558
0.0186988
0.0189404
0.0191794
0.0194145
0.0196444
0.0198677
0.020083
0.0202889
0.0204842
0.0206674
0.0208374
0.0209932
0.0211336
0.0212579
0.0213651
0.0214548
0.0215265
0.0215797
0.0216135
0.0216283
0.0216262
0.0216074
0.0215704
0.0215162
0.0214461
0.0213616
0.0212636
0.0211535
0.0210328
0.0209031
0.0207661
0.0206235
0.020477
0.0203285
0.0201797
0.0200328
0.0198893
0.0197509
0.0196194
0.0194962
0.0193828
0.0192806
0.0191909
0.0191143
0.0190506
0.0190034
0.018985
0.016522
0.016446
0.016289
0.0161388
0.0160012
0.0158666
0.015736
0.0156097
0.0154882
0.0153719
0.0152611
0.0151562
0.0150578
0.014966
0.0148811
0.0148036
0.0147335
0.0146711
0.0146166
0.0145701
0.0145317
0.0145016
0.0144802
0.014468
0.0144644
0.0144686
0.0144817
0.0145045
0.0145367
0.0145782
0.0146294
0.0146903
0.0147611
0.0148418
0.0149326
0.0150336
0.0151446
0.0152657
0.0153968
0.0155379
0.0156891
0.0158501
0.016021
0.0162015
0.016391
0.0165888
0.0167942
0.0170064
0.017225
0.0174491
0.017678
0.0179107
0.018146
0.018383
0.0186204
0.0188569
0.0190911
0.0193219
0.0195477
0.0197674
0.0199794
0.0201825
0.0203754
0.0205566
0.020725
0.0208793
0.0210187
0.0211421
0.0212487
0.021338
0.0214095
0.0214626
0.0214965
0.0215115
0.0215096
0.021491
0.0214544
0.0214003
0.0213305
0.0212461
0.0211481
0.0210378
0.0209168
0.0207865
0.0206486
0.0205048
0.0203568
0.0202062
0.0200549
0.0199048
0.0197575
0.0196146
0.0194776
0.019348
0.0192272
0.0191166
0.0190174
0.0189299
0.0188526
0.0187902
0.0187642
0.0167333
0.0166456
0.0164659
0.0162971
0.016145
0.015998
0.0158574
0.0157231
0.0155953
0.0154742
0.01536
0.0152527
0.0151526
0.0150599
0.0149746
0.0148969
0.0148268
0.0147644
0.0147099
0.0146633
0.0146245
0.0145938
0.0145712
0.0145575
0.0145521
0.0145542
0.0145646
0.0145841
0.0146126
0.0146501
0.0146966
0.0147524
0.0148177
0.0148925
0.0149768
0.0150708
0.0151748
0.0152888
0.0154128
0.0155469
0.0156914
0.0158458
0.0160099
0.0161831
0.0163651
0.0165554
0.0167534
0.0169587
0.0171707
0.0173886
0.0176115
0.0178385
0.0180685
0.0183005
0.0185334
0.0187658
0.0189964
0.0192239
0.0194469
0.019664
0.019874
0.0200753
0.0202667
0.0204469
0.0206146
0.0207686
0.0209078
0.0210312
0.0211381
0.0212276
0.0212995
0.0213531
0.0213874
0.0214028
0.0214013
0.021383
0.0213465
0.0212926
0.0212226
0.0211378
0.0210392
0.0209281
0.0208059
0.0206741
0.0205343
0.0203881
0.0202373
0.0200835
0.0199284
0.0197737
0.0196212
0.0194724
0.0193287
0.0191916
0.0190623
0.0189421
0.0188325
0.0187333
0.0186417
0.0185637
0.01853
0.016938
0.0168388
0.0166368
0.0164493
0.0162825
0.0161229
0.0159719
0.0158291
0.0156945
0.0155679
0.0154495
0.0153391
0.0152367
0.0151423
0.0150559
0.0149773
0.0149066
0.0148436
0.0147885
0.0147412
0.0147015
0.0146696
0.0146455
0.0146297
0.014622
0.0146217
0.0146291
0.0146448
0.0146693
0.0147021
0.0147436
0.0147938
0.0148531
0.0149217
0.0149998
0.0150874
0.0151849
0.0152926
0.0154105
0.0155383
0.0156759
0.0158233
0.01598
0.0161458
0.0163206
0.016504
0.0166955
0.0168946
0.0171008
0.0173131
0.0175308
0.017753
0.0179786
0.0182066
0.0184359
0.0186653
0.0188932
0.0191185
0.0193397
0.0195555
0.0197644
0.0199651
0.0201562
0.0203364
0.0205043
0.0206589
0.0207988
0.0209232
0.0210311
0.0211217
0.0211946
0.0212493
0.0212846
0.0213007
0.0212998
0.0212819
0.0212457
0.0211916
0.0211213
0.0210358
0.0209361
0.0208235
0.0206994
0.0205653
0.0204227
0.0202732
0.0201186
0.0199604
0.0198002
0.0196399
0.019481
0.019325
0.0191735
0.0190277
0.0188888
0.0187582
0.0186373
0.0185256
0.0184193
0.0183254
0.018284
0.0171333
0.0170228
0.0167989
0.0165929
0.0164114
0.016239
0.0160772
0.0159255
0.0157836
0.0156512
0.015528
0.0154139
0.0153086
0.015212
0.0151237
0.0150437
0.0149718
0.0149077
0.0148514
0.0148027
0.0147616
0.0147279
0.0147018
0.0146833
0.0146727
0.0146695
0.0146732
0.0146846
0.0147043
0.0147323
0.0147686
0.0148135
0.0148671
0.01493
0.0150024
0.0150844
0.0151759
0.0152772
0.0153882
0.0155089
0.0156393
0.0157793
0.0159289
0.0160879
0.0162562
0.0164333
0.016619
0.0168125
0.0170134
0.0172208
0.017434
0.0176522
0.0178742
0.0180991
0.0183258
0.018553
0.0187794
0.0190034
0.0192239
0.0194395
0.0196485
0.0198497
0.0200416
0.0202229
0.0203922
0.0205482
0.0206898
0.020816
0.0209258
0.0210183
0.0210931
0.0211494
0.0211863
0.0212037
0.0212036
0.0211864
0.0211506
0.0210965
0.0210256
0.0209391
0.0208381
0.0207235
0.020597
0.0204598
0.0203136
0.02016
0.0200005
0.0198369
0.0196707
0.0195035
0.0193371
0.019173
0.0190125
0.018857
0.0187075
0.0185656
0.0184326
0.0183079
0.0181865
0.0180765
0.0180272
0.0173166
0.0171951
0.0169495
0.0167253
0.0165292
0.0163439
0.0161713
0.0160104
0.0158609
0.0157222
0.0155939
0.0154756
0.0153669
0.0152674
0.0151768
0.0150947
0.0150209
0.014955
0.0148968
0.0148461
0.0148028
0.0147667
0.0147378
0.0147162
0.0147021
0.0146954
0.0146956
0.0147028
0.0147178
0.014741
0.0147726
0.0148126
0.014861
0.0149183
0.0149845
0.0150599
0.0151447
0.0152388
0.0153425
0.0154559
0.0155793
0.0157124
0.0158555
0.0160082
0.0161704
0.0163417
0.0165219
0.0167103
0.0169065
0.0171097
0.0173192
0.017534
0.0177533
0.017976
0.0182009
0.0184269
0.0186526
0.0188765
0.0190974
0.0193137
0.0195239
0.0197267
0.0199206
0.0201041
0.0202758
0.0204344
0.0205788
0.0207077
0.0208202
0.0209154
0.0209928
0.0210516
0.0210908
0.02111
0.0211112
0.021095
0.0210599
0.0210059
0.0209345
0.020847
0.0207442
0.0206275
0.020498
0.0203572
0.0202068
0.0200482
0.0198831
0.0197131
0.0195399
0.019365
0.01919
0.0190167
0.0188462
0.01868
0.0185192
0.0183651
0.0182192
0.0180809
0.0179443
0.017818
0.0177607
0.0174853
0.0173531
0.0170864
0.0168442
0.0166335
0.0164355
0.0162519
0.0160818
0.0159244
0.0157791
0.0156452
0.0155223
0.0154095
0.0153065
0.0152127
0.0151279
0.0150515
0.0149832
0.0149227
0.0148697
0.0148239
0.0147851
0.0147533
0.0147283
0.0147107
0.0147005
0.0146972
0.0147005
0.0147111
0.0147294
0.0147556
0.0147897
0.0148321
0.0148828
0.0149421
0.0150104
0.0150879
0.015175
0.0152717
0.0153783
0.0154949
0.0156216
0.0157583
0.0159049
0.0160613
0.0162272
0.0164023
0.0165861
0.0167781
0.0169776
0.017184
0.0173963
0.0176135
0.0178347
0.0180588
0.0182845
0.0185105
0.0187353
0.0189575
0.0191756
0.0193882
0.0195937
0.0197907
0.0199775
0.0201528
0.0203152
0.0204634
0.0205961
0.0207124
0.0208113
0.0208921
0.0209541
0.0209964
0.0210181
0.021021
0.0210064
0.0209724
0.0209187
0.020847
0.0207584
0.0206539
0.0205346
0.0204019
0.0202571
0.0201018
0.0199376
0.0197661
0.019589
0.0194079
0.0192244
0.01904
0.0188564
0.0186752
0.0184974
0.0183243
0.0181573
0.0179978
0.0178455
0.0176932
0.0175504
0.0174851
0.0176372
0.0174944
0.0172071
0.0169472
0.0167223
0.0165116
0.0163171
0.0161375
0.0159719
0.0158194
0.0156793
0.0155511
0.015434
0.0153272
0.0152303
0.0151425
0.0150633
0.0149924
0.0149294
0.0148739
0.0148255
0.0147841
0.0147493
0.0147211
0.0146996
0.014685
0.0146773
0.014676
0.0146813
0.0146937
0.0147137
0.0147413
0.0147768
0.0148206
0.014873
0.0149344
0.0150049
0.015085
0.0151749
0.0152747
0.0153847
0.0155049
0.0156354
0.0157761
0.0159269
0.0160877
0.0162581
0.0164376
0.0166259
0.0168223
0.0170261
0.0172365
0.0174525
0.017673
0.017897
0.0181233
0.0183505
0.0185772
0.0188018
0.0190229
0.0192389
0.0194482
0.0196493
0.0198407
0.0200207
0.020188
0.0203412
0.020479
0.0206002
0.0207038
0.020789
0.0208552
0.0209013
0.0209262
0.0209315
0.020919
0.0208867
0.0208338
0.020762
0.0206725
0.0205662
0.0204443
0.0203081
0.0201589
0.0199984
0.0198281
0.0196496
0.0194646
0.0192748
0.0190819
0.0188872
0.0186926
0.0184996
0.0183094
0.0181233
0.0179427
0.017769
0.017602
0.0174338
0.0172743
0.0172009
0.01777
0.0176169
0.0173094
0.0170323
0.0167933
0.0165699
0.0163642
0.0161746
0.0160005
0.0158409
0.0156949
0.0155616
0.0154403
0.01533
0.0152299
0.0151392
0.0150573
0.0149836
0.0149176
0.0148589
0.0148072
0.0147621
0.0147236
0.0146913
0.0146652
0.0146453
0.0146321
0.0146254
0.014625
0.0146311
0.0146445
0.0146655
0.0146943
0.0147312
0.0147766
0.0148309
0.0148944
0.0149675
0.0150504
0.0151434
0.0152466
0.0153604
0.0154847
0.0156197
0.0157651
0.0159209
0.0160869
0.0162626
0.0164476
0.0166414
0.0168432
0.0170522
0.0172676
0.0174882
0.017713
0.0179406
0.01817
0.0183995
0.0186275
0.0188526
0.0190731
0.0192874
0.0194939
0.019691
0.019877
0.0200505
0.0202099
0.0203539
0.0204812
0.0205907
0.0206815
0.0207529
0.0208039
0.0208329
0.0208413
0.0208314
0.0208013
0.0207497
0.0206783
0.0205882
0.0204803
0.0203558
0.020216
0.0200623
0.0198961
0.0197192
0.0195332
0.0193398
0.0191406
0.0189375
0.0187319
0.0185254
0.0183198
0.0181165
0.0179166
0.0177216
0.0175331
0.017351
0.0171664
0.0169898
0.0169082
0.0178814
0.0177184
0.0173913
0.0170971
0.0168437
0.0166073
0.0163905
0.0161917
0.0160098
0.0158439
0.0156925
0.0155545
0.0154287
0.0153143
0.0152103
0.0151159
0.0150305
0.0149532
0.0148835
0.014821
0.0147652
0.0147158
0.0146726
0.0146355
0.0146043
0.014579
0.0145599
0.0145473
0.0145411
0.0145411
0.0145477
0.0145617
0.0145835
0.0146133
0.0146514
0.0146984
0.0147546
0.0148204
0.0148961
0.0149821
0.0150787
0.015186
0.0153042
0.0154334
0.0155736
0.0157247
0.0158864
0.0160586
0.0162407
0.0164322
0.0166325
0.0168408
0.0170561
0.0172775
0.0175038
0.0177337
0.017966
0.0181993
0.0184318
0.0186619
0.018888
0.0191085
0.0193216
0.0195257
0.019719
0.0198998
0.0200668
0.0202183
0.0203529
0.0204696
0.0205672
0.020645
0.020702
0.0207363
0.020749
0.0207424
0.0207151
0.0206655
0.0205948
0.0205045
0.0203953
0.0202684
0.020125
0.0199666
0.0197947
0.0196109
0.0194169
0.0192145
0.0190054
0.0187913
0.018574
0.018355
0.0181361
0.0179188
0.0177044
0.0174944
0.0172905