# vtk DataFile Version 2.0

ASCII
DATASET STRUCTURED_GRID
DIMENSIONS 51 51 1
POINTS 2601 float
0 0 0
0.02 0 0
0.04 0 0
0.06 0 0
0.08 0 0
0.1 0 0
0.12 0 0
0.14 0 0
0.16 0 0
0.18 0 0
0.2 0 0
0.22 0 0
0.24 0 0
0.26 0 0
0.28 0 0
0.3 0 0
0.32 0 0
0.34 0 0
0.36 0 0
0.38 0 0
0.4 0 0
0.42 0 0
0.44 0 0
0.46 0 0
0.48 0 0
0.5 0 0
0.52 0 0
0.54 0 0
0.56 0 0
0.58 0 0
0.6 0 0
0.62 0 0
0.64 0 0
0.66 0 0
0.68 0 0
0.7 0 0
0.72 0 0
0.74 0 0
0.76 0 0
0.78 0 0
0.8 0 0
0.82 0 0
0.84 0 0
0.86 0 0
0.88 0 0
0.9 0 0
0.92 0 0
0.94 0 0
0.96 0 0
0.98 0 0
1 0 0
0 0.02 0
0.02 0.02 0
0.04 0.02 0
0.06 0.02 0
0.08 0.02 0
0.1 0.02 0
0.12 0.02 0
0.14 0.02 0
0.16 0.02 0
0.18 0.02 0
0.2 0.02 0
0.22 0.02 0
0.24 0.02 0
0.26 0.02 0
0.28 0.02 0
0.3 0.02 0
0.32 0.02 0
0.34 0.02 0
0.36 0.02 0
0.38 0.02 0
0.4 0.02 0
0.42 0.02 0
0.44 0.02 0
0.46 0.02 0
0.48 0.02 0
0.5 0.02 0
0.52 0.02 0
0.54 0.02 0
0.56 0.02 0
0.58 0.02 0
0.6 0.02 0
0.62 0.02 0
0.64 0.02 0
0.66 0.02 0
0.68 0.02 0
0.7 0.02 0
0.72 0.02 0
0.74 0.02 0
0.76 0.02 0
0.78 0.02 0
0.8 0.02 0
0.82 0.02 0
0.84 0.02 0
0.86 0.02 0
0.88 0.02 0
0.9 0.02 0
0.92 0.02 0
0.94 0.02 0
0.96 0.02 0
0.98 0.02 0
1 0.02 0
0 0.04 0
0.02 0.04 0
0.04 0.04 0
0.06 0.04 0
0.08 0.04 0
0.1 0.04 0
0.12 0.04 0
0.14 0.04 0
0.16 0.04 0
0.18 0.04 0
0.2 0.04 0
0.22 0.04 0
0.24 0.04 0
0.26 0.04 0
0.28 0.04 0
0.3 0.04 0
0.32 0.04 0
0.34 0.04 0
0.36 0.04 0
0.38 0.04 0
0.4 0.04 0
0.42 0.04 0
0.44 0.04 0
0.46 0.04 0
0.48 0.04 0
0.5 0.04 0
0.52 0.04 0
0.54 0.04 0
0.56 0.04 0
0.58 0.04 0
0.6 0.04 0
0.62 0.04 0
0.64 0.04 0
0.66 0.04 0
0.68 0.04 0
0.7 0.04 0
0.72 0.04 0
0.74 0.04 0
0.76 0.04 0
0.78 0.04 0
0.8 0.04 0
0.82 0.04 0
0.84 0.04 0
0.86 0.04 0
0.88 0.04 0
0.9 0.04 0
0.92 0.04 0
0.94 0.04 0
0.96 0.04 0
0.98 0.04 0
1 0.04 0
0 0.06 0
0.02 0.06 0
0.04 0.06 0
0.06 0.06 0
0.08 0.06 0
0.1 0.06 0
0.12 0.06 0
0.14 0.06 0
0.16 0.06 0
0.18 0.06 0
0.2 0.06 0
0.22 0.06 0
0.24 0.06 0
0.26 0.06 0
0.28 0.06 0
0.3 0.06 0
0.32 0.06 0
0.34 0.06 0
0.36 0.06 0
0.38 0.06 0
0.4 0.06 0
0.42 0.06 0
0.44 0.06 0
0.46 0.06 0
0.48 0.06 0
0.5 0.06 0
0.52 0.06 0
0.54 0.06 0
0.56 0.06 0
0.58 0.06 0
0.6 0.06 0
0.62 0.06 0
0.64 0.06 0
0.66 0.06 0
0.68 0.06 0
0.7 0.06 0
0.72 0.06 0
0.74 0.06 0
0.76 0.06 0
0.78 0.06 0
0.8 0.06 0
0.82 0.06 0
0.84 0.06 0
0.86 0.06 0
0.88 0.06 0
0.9 0.06 0
0.92 0.06 0
0.94 0.06 0
0.96 0.06 0
0.98 0.06 0
1 0.06 0
0 0.08 0
0.02 0.08 0
0.04 0.08 0
0.06 0.08 0
0.08 0.08 0
0.1 0.08 0
0.12 0.08 0
0.14 0.08 0
0.16 0.08 0
0.18 0.08 0
0.2 0.08 0
0.22 0.08 0
0.24 0.08 0
0.26 0.08 0
0.28 0.08 0
0.3 0.08 0
0.32 0.08 0
0.34 0.08 0
0.36 0.08 0
0.38 0.08 0
0.4 0.08 0
0.42 0.08 0
0.44 0.08 0
0.46 0.08 0
0.48 0.08 0
0.5 0.08 0
0.52 0.08 0
0.54 0.08 0
0.56 0.08 0
0.58 0.08 0
0.6 0.08 0
0.62 0.08 0
0.64 0.08 0
0.66 0.08 0
0.68 0.08 0
0.7 0.08 0
0.72 0.08 0
0.74 0.08 0
0.76 0.08 0
0.78 0.08 0
0.8 0.08 0
0.82 0.08 0
0.84 0.08 0
0.86 0.08 0
0.88 0.08 0
0.9 0.08 0
0.92 0.08 0
0.94 0.08 0
0.96 0.08 0
0.98 0.08 0
1 0.08 0
0 0.1 0
0.02 0.1 0
0.04 0.1 0
0.06 0.1 0
0.08 0.1 0
0.1 0.1 0
0.12 0.1 0
0.14 0.1 0
0.16 0.1 0
0.18 0.1 0
0.2 0.1 0
0.22 0.1 0
0.24 0.1 0
0.26 0.1 0
0.28 0.1 0
0.3 0.1 0
0.32 0.1 0
0.34 0.1 0
0.36 0.1 0
0.38 0.1 0
0.4 0.1 0
0.42 0.1 0
0.44 0.1 0
0.46 0.1 0
0.48 0.1 0
0.5 0.1 0
0.52 0.1 0
0.54 0.1 0
0.56 0.1 0
0.58 0.1 0
0.6 0.1 0
0.62 0.1 0
0.64 0.1 0
0.66 0.1 0
0.68 0.1 0
0.7 0.1 0
0.72 0.1 0
0.74 0.1 0
0.76 0.1 0
0.78 0.1 0
0.8 0.1 0
0.82 0.1 0
0.84 0.1 0
0.86 0.1 0
0.88 0.1 0
0.9 0.1 0
0.92 0.1 0
0.94 0.1 0
0.96 0.1 0
0.98 0.1 0
1 0.1 0
0 0.12 0
0.02 0.12 0
0.04 0.12 0
0.06 0.12 0
0.08 0.12 0
0.1 0.12 0
0.12 0.12 0
0.14 0.12 0
0.16 0.12 0
0.18 0.12 0
0.2 0.12 0
0.22 0.12 0
0.24 0.12 0
0.26 0.12 0
0.28 0.12 0
0.3 0.12 0
0.32 0.12 0
0.34 0.12 0
0.36 0.12 0
0.38 0.12 0
0.4 0.12 0
0.42 0.12 0
0.44 0.12 0
0.46 0.12 0
0.48 0.12 0
0.5 0.12 0
0.52 0.12 0
0.54 0.12 0
0.56 0.12 0
0.58 0.12 0
0.6 0.12 0
0.62 0.12 0
0.64 0.12 0
0.66 0.12 0
0.68 0.12 0
0.7 0.12 0
0.72 0.12 0
0.74 0.12 0
0.76 0.12 0
0.78 0.12 0
0.8 0.12 0
0.82 0.12 0
0.84 0.12 0
0.86 0.12 0
0.88 0.12 0
0.9 0.12 0
0.92 0.12 0
0.94 0.12 0
0.96 0.12 0
0.98 0.12 0
1 0.12 0
0 0.14 0
0.02 0.14 0
0.04 0.14 0
0.06 0.14 0
0.08 0.14 0
0.1 0.14 0
0.12 0.14 0
0.14 0.14 0
0.16 0.14 0
0.18 0.14 0
0.2 0.14 0
0.22 0.14 0
0.24 0.14 0
0.26 0.14 0
0.28 0.14 0
0.3 0.14 0
0.32 0.14 0
0.34 0.14 0
0.36 0.14 0
0.38 0.14 0
0.4 0.14 0
0.42 0.14 0
0.44 0.14 0
0.46 0.14 0
0.48 0.14 0
0.5 0.14 0
0.52 0.14 0
0.54 0.14 0
0.56 0.14 0
0.58 0.14 0
0.6 0.14 0
0.62 0.14 0
0.64 0.14 0
0.66 0.14 0
0.68 0.14 0
0.7 0.14 0
0.72 0.14 0
0.74 0.14 0
0.76 0.14 0
0.78 0.14 0
0.8 0.14 0
0.82 0.14 0
0.84 0.14 0
0.86 0.14 0
0.88 0.14 0
0.9 0.14 0
0.92 0.14 0
0.94 0.14 0
0.96 0.14 0
0.98 0.14 0
1 0.14 0
0 0.16 0
0.02 0.16 0
0.04 0.16 0
0.06 0.16 0
0.08 0.16 0
0.1 0.16 0
0.12 0.16 0
0.14 0.16 0
0.16 0.16 0
0.18 0.16 0
0.2 0.16 0
0.22 0.16 0
0.24 0.16 0
0.26 0.16 0
0.28 0.16 0
0.3 0.16 0
0.32 0.16 0
0.34 0.16 0
0.36 0.16 0
0.38 0.16 0
0.4 0.16 0
0.42 0.16 0
0.44 0.16 0
0.46 0.16 0
0.48 0.16 0
0.5 0.16 0
0.52 0.16 0
0.54 0.16 0
0.56 0.16 0
0.58 0.16 0
0.6 0.16 0
0.62 0.16 0
0.64 0.16 0
0.66 0.16 0
0.68 0.16 0
0.7 0.16 0
0.72 0.16 0
0.74 0.16 0
0.76 0.16 0
0.78 0.16 0
0.8 0.16 0
0.82 0.16 0
0.84 0.16 0
0.86 0.16 0
0.88 0.16 0
0.9 0.16 0
0.92 0.16 0
0.94 0.16 0
0.96 0.16 0
0.98 0.16 0
1 0.16 0
0 0.18 0
0.02 0.18 0
0.04 0.18 0
0.06 0.18 0
0.08 0.18 0
0.1 0.18 0
0.12 0.18 0
0.14 0.18 0
0.16 0.18 0
0.18 0.18 0
0.2 0.18 0
0.22 0.18 0
0.24 0.18 0
0.26 0.18 0
0.28 0.18 0
0.3 0.18 0
0.32 0.18 0
0.34 0.18 0
0.36 0.18 0
0.38 0.18 0
0.4 0.18 0
0.42 0.18 0
0.44 0.18 0
0.46 0.18 0
0.48 0.18 0
0.5 0.18 0
0.52 0.18 0
0.54 0.18 0
0.56 0.18 0
0.58 0.18 0
0.6 0.18 0
0.62 0.18 0
0.64 0.18 0
0.66 0.18 0
0.68 0.18 0
0.7 0.18 0
0.72 0.18 0
0.74 0.18 0
0.76 0.18 0
0.78 0.18 0
0.8 0.18 0
0.82 0.18 0
0.84 0.18 0
0.86 0.18 0
0.88 0.18 0
0.9 0.18 0
0.92 0.18 0
0.94 0.18 0
0.96 0.18 0
0.98 0.18 0
1 0.18 0
0 0.2 0
0.02 0.2 0
0.04 0.2 0
0.06 0.2 0
0.08 0.2 0
0.1 0.2 0
0.12 0.2 0
0.14 0.2 0
0.16 0.2 0
0.18 0.2 0
0.2 0.2 0
0.22 0.2 0
0.24 0.2 0
0.26 0.2 0
0.28 0.2 0
0.3 0.2 0
0.32 0.2 0
0.34 0.2 0
0.36 0.2 0
0.38 0.2 0
0.4 0.2 0
0.42 0.2 0
0.44 0.2 0
0.46 0.2 0
0.48 0.2 0
0.5 0.2 0
0.52 0.2 0
0.54 0.2 0
0.56 0.2 0
0.58 0.2 0
0.6 0.2 0
0.62 0.2 0
0.64 0.2 0
0.66 0.2 0
0.68 0.2 0
0.7 0.2 0
0.72 0.2 0
0.74 0.2 0
0.76 0.2 0
0.78 0.2 0
0.8 0.2 0
0.82 0.2 0
0.84 0.2 0
0.86 0.2 0
0.88 0.2 0
0.9 0.2 0
0.92 0.2 0
0.94 0.2 0
0.96 0.2 0
0.98 0.2 0
1 0.2 0
0 0.22 0
0.02 0.22 0
0.04 0.22 0
0.06 0.22 0
0.08 0.22 0
0.1 0.22 0
0.12 0.22 0
0.14 0.22 0
0.16 0.22 0
0.18 0.22 0
0.2 0.22 0
0.22 0.22 0
0.24 0.22 0
0.26 0.22 0
0.28 0.22 0
0.3 0.22 0
0.32 0.22 0
0.34 0.22 0
0.36 0.22 0
0.38 0.22 0
0.4 0.22 0
0.42 0.22 0
0.44 0.22 0
0.46 0.22 0
0.48 0.22 0
0.5 0.22 0
0.52 0.22 0
0.54 0.22 0
0.56 0.22 0
0.58 0.22 0
0.6 0.22 0
0.62 0.22 0
0.64 0.22 0
0.66 0.22 0
0.68 0.22 0
0.7 0.22 0
0.72 0.22 0
0.74 0.22 0
0.76 0.22 0
0.78 0.22 0
0.8 0.22 0
0.82 0.22 0
0.84 0.22 0
0.86 0.22 0
0.88 0.22 0
0.9 0.22 0
0.92 0.22 0
0.94 0.22 0
0.96 0.22 0
0.98 0.22 0
1 0.22 0
0 0.24 0
0.02 0.24 0
0.04 0.24 0
0.06 0.24 0
0.08 0.24 0
0.1 0.24 0
0.12 0.24 0
0.14 0.24 0
0.16 0.24 0
0.18 0.24 0
0.2 0.24 0
0.22 0.24 0
0.24 0.24 0
0.26 0.24 0
0.28 0.24 0
0.3 0.24 0
0.32 0.24 0
0.34 0.24 0
0.36 0.24 0
0.38 0.24 0
0.4 0.24 0
0.42 0.24 0
0.44 0.24 0
0.46 0.24 0
0.48 0.24 0
0.5 0.24 0
0.52 0.24 0
0.54 0.24 0
0.56 0.24 0
0.58 0.24 0
0.6 0.24 0
0.62 0.24 0
0.64 0.24 0
0.66 0.24 0
0.68 0.24 0
0.7 0.24 0
0.72 0.24 0
0.74 0.24 0
0.76 0.24 0
0.78 0.24 0
0.8 0.24 0
0.82 0.24 0
0.84 0.24 0
0.86 0.24 0
0.88 0.24 0
0.9 0.24 0
0.92 0.24 0
0.94 0.24 0
0.96 0.24 0
0.98 0.24 0
1 0.24 0
0 0.26 0
0.02 0.26 0
0.04 0.26 0
0.06 0.26 0
0.08 0.26 0
0.1 0.26 0
0.12 0.26 0
0.14 0.26 0
0.16 0.26 0
0.18 0.26 0
0.2 0.26 0
0.22 0.26 0
0.24 0.26 0
0.26 0.26 0
0.28 0.26 0
0.3 0.26 0
0.32 0.26 0
0.34 0.26 0
0.36 0.26 0
0.38 0.26 0
0.4 0.26 0
0.42 0.26 0
0.44 0.26 0
0.46 0.26 0
0.48 0.26 0
0.5 0.26 0
0.52 0.26 0
0.54 0.26 0
0.56 0.26 0
0.58 0.26 0
0.6 0.26 0
0.62 0.26 0
0.64 0.26 0
0.66 0.26 0
0.68 0.26 0
0.7 0.26 0
0.72 0.26 0
0.74 0.26 0
0.76 0.26 0
0.78 0.26 0
0.8 0.26 0
0.82 0.26 0
0.84 0.26 0
0.86 0.26 0
0.88 0.26 0
0.9 0.26 0
0.92 0.26 0
0.94 0.26 0
0.96 0.26 0
0.98 0.26 0
1 0.26 0
0 0.28 0
0.02 0.28 0
0.04 0.28 0
0.06 0.28 0
0.08 0.28 0
0.1 0.28 0
0.12 0.28 0
0.14 0.28 0
0.16 0.28 0
0.18 0.28 0
0.2 0.28 0
0.22 0.28 0
0.24 0.28 0
0.26 0.28 0
0.28 0.28 0
0.3 0.28 0
0.32 0.28 0
0.34 0.28 0
0.36 0.28 0
0.38 0.28 0
0.4 0.28 0
0.42 0.28 0
0.44 0.28 0
0.46 0.28 0
0.48 0.28 0
0.5 0.28 0
0.52 0.28 0
0.54 0.28 0
0.56 0.28 0
0.58 0.28 0
0.6 0.28 0
0.62 0.28 0
0.64 0.28 0
0.66 0.28 0
0.68 0.28 0
0.7 0.28 0
0.72 0.28 0
0.74 0.28 0
0.76 0.28 0
0.78 0.28 0
0.8 0.28 0
0.82 0.28 0
0.84 0.28 0
0.86 0.28 0
0.88 0.28 0
0.9 0.28 0
0.92 0.28 0
0.94 0.28 0
0.96 0.28 0
0.98 0.28 0
1 0.28 0
0 0.3 0
0.02 0.3 0
0.04 0.3 0
0.06 0.3 0
0.08 0.3 0
0.1 0.3 0
0.12 0.3 0
0.14 0.3 0
0.16 0.3 0
0.18 0.3 0
0.2 0.3 0
0.22 0.3 0
0.24 0.3 0
0.26 0.3 0
0.28 0.3 0
0.3 0.3 0
0.32 0.3 0
0.34 0.3 0
0.36 0.3 0
0.38 0.3 0
0.4 0.3 0
0.42 0.3 0
0.44 0.3 0
0.46 0.3 0
0.48 0.3 0
0.5 0.3 0
0.52 0.3 0
0.54 0.3 0
0.56 0.3 0
0.58 0.3 0
0.6 0.3 0
0.62 0.3 0
0.64 0.3 0
0.66 0.3 0
0.68 0.3 0
0.7 0.3 0
0.72 0.3 0
0.74 0.3 0
0.76 0.3 0
0.78 0.3 0
0.8 0.3 0
0.82 0.3 0
0.84 0.3 0
0.86 0.3 0
0.88 0.3 0
0.9 0.3 0
0.92 0.3 0
0.94 0.3 0
0.96 0.3 0
0.98 0.3 0
1 0.3 0
0 0.32 0
0.02 0.32 0
0.04 0.32 0
0.06 0.32 0
0.08 0.32 0
0.1 0.32 0
0.12 0.32 0
0.14 0.32 0
0.16 0.32 0
0.18 0.32 0
0.2 0.32 0
0.22 0.32 0
0.24 0.32 0
0.26 0.32 0
0.28 0.32 0
0.3 0.32 0
0.32 0.32 0
0.34 0.32 0
0.36 0.32 0
0.38 0.32 0
0.4 0.32 0
0.42 0.32 0
0.44 0.32 0
0.46 0.32 0
0.48 0.32 0
0.5 0.32 0
0.52 0.32 0
0.54 0.32 0
0.56 0.32 0
0.58 0.32 0
0.6 0.32 0
0.62 0.32 0
0.64 0.32 0
0.66 0.32 0
0.68 0.32 0
0.7 0.32 0
0.72 0.32 0
0.74 0.32 0
0.76 0.32 0
0.78 0.32 0
0.8 0.32 0
0.82 0.32 0
0.84 0.32 0
0.86 0.32 0
0.88 0.32 0
0.9 0.32 0
0.92 0.32 0
0.94 0.32 0
0.96 0.32 0
0.98 0.32 0
1 0.32 0
0 0.34 0
0.02 0.34 0
0.04 0.34 0
0.06 0.34 0
0.08 0.34 0
[...]
POINT_DATA 2601
SCALARS pressure float 1
LOOKUP_TABLE default
4.64302e-05
4.64457e-05
4.6467e-05
4.64794e-05
4.64816e-05
4.64717e-05
4.64453e-05
4.64023e-05
4.63449e-05
4.62757e-05
4.61973e-05
4.61123e-05
4.60231e-05
4.59314e-05
4.58392e-05
4.57478e-05
4.56577e-05
4.55692e-05
4.54824e-05
4.53974e-05
4.53142e-05
4.52327e-05
4.51527e-05
4.50742e-05
4.49975e-05
4.49227e-05
4.48501e-05
4.478e-05
4.47128e-05
4.46488e-05
4.45884e-05
4.45321e-05
4.448e-05
4.44324e-05
4.43895e-05
4.43513e-05
4.4318e-05
4.42893e-05
4.42654e-05
4.42459e-05
4.42309e-05
4.42204e-05
4.42145e-05
4.42127e-05
4.42143e-05
4.42195e-05
4.42284e-05
4.42404e-05
4.42521e-05
4.42582e-05
4.42582e-05
4.64151e-05
4.64305e-05
4.6447e-05
4.6454e-05
4.64524e-05
4.64397e-05
4.64119e-05
4.63695e-05
4.63143e-05
4.62481e-05
4.61734e-05
4.60922e-05
4.60068e-05
4.5919e-05
4.583e-05
4.57411e-05
4.56532e-05
4.55664e-05
4.5481e-05
4.53971e-05
4.53148e-05
4.52339e-05
4.51547e-05
4.50771e-05
4.50013e-05
4.49275e-05
4.48561e-05
4.47872e-05
4.47213e-05
4.46588e-05
4.45999e-05
4.45449e-05
4.44942e-05
4.4448e-05
4.44063e-05
4.43692e-05
4.43367e-05
4.43088e-05
4.42853e-05
4.42661e-05
4.42511e-05
4.42401e-05
4.42333e-05
4.42304e-05
4.42306e-05
4.42338e-05
4.424e-05
4.42487e-05
4.42581e-05
4.42643e-05
4.42643e-05
4.63934e-05
4.64135e-05
4.64302e-05
4.64354e-05
4.64318e-05
4.64166e-05
4.63871e-05
4.63442e-05
4.62894e-05
4.62245e-05
4.61516e-05
4.60727e-05
4.59899e-05
4.59048e-05
4.58186e-05
4.57322e-05
4.56465e-05
4.55616e-05
4.54777e-05
4.53951e-05
4.53136e-05
4.52336e-05
4.5155e-05
4.5078e-05
4.50029e-05
4.49298e-05
4.48591e-05
4.4791e-05
4.47261e-05
4.46645e-05
4.46068e-05
4.45531e-05
4.45038e-05
4.44588e-05
4.44184e-05
4.43826e-05
4.43513e-05
4.43244e-05
4.43016e-05
4.42829e-05
4.42681e-05
4.4257e-05
4.42495e-05
4.42456e-05
4.42447e-05
4.42464e-05
4.4251e-05
4.42579e-05
4.42674e-05
4.42763e-05
4.42763e-05
4.63777e-05
4.64044e-05
4.6424e-05
4.64291e-05
4.64243e-05
4.64068e-05
4.63749e-05
4.63301e-05
4.6274e-05
4.62084e-05
4.61353e-05
4.60569e-05
4.59751e-05
4.58913e-05
4.58068e-05
4.57223e-05
4.56383e-05
4.5555e-05
4.54725e-05
4.53911e-05
4.53106e-05
4.52313e-05
4.51532e-05
4.50766e-05
4.50017e-05
4.49287e-05
4.48582e-05
4.47904e-05
4.47257e-05
4.46645e-05
4.46073e-05
4.45542e-05
4.45055e-05
4.44613e-05
4.44217e-05
4.43867e-05
4.43562e-05
4.43301e-05
4.43082e-05
4.42903e-05
4.42759e-05
4.42651e-05
4.42575e-05
4.42533e-05
4.42519e-05
4.42531e-05
4.42572e-05
4.42641e-05
4.42756e-05
4.42882e-05
4.42882e-05
4.63713e-05
4.64024e-05
4.6424e-05
4.64289e-05
4.6423e-05
4.6403e-05
4.63676e-05
4.63194e-05
4.62606e-05
4.61931e-05
4.61189e-05
4.60403e-05
4.5959e-05
4.58764e-05
4.57934e-05
4.57106e-05
4.56284e-05
4.55467e-05
4.54657e-05
4.53854e-05
4.53059e-05
4.52272e-05
4.51494e-05
4.50729e-05
4.49979e-05
4.49248e-05
4.4854e-05
4.4786e-05
4.47213e-05
4.46602e-05
4.4603e-05
4.45502e-05
4.45019e-05
4.44583e-05
4.44194e-05
4.43852e-05
4.43556e-05
4.43303e-05
4.43093e-05
4.4292e-05
4.42783e-05
4.42678e-05
4.42604e-05
4.42561e-05
4.42547e-05
4.42557e-05
4.42597e-05
4.42669e-05
4.42799e-05
4.42957e-05
4.42957e-05
4.63734e-05
4.64081e-05
4.64311e-05
4.64355e-05
4.64276e-05
4.64042e-05
4.63648e-05
4.63117e-05
4.62487e-05
4.6178e-05
4.6102e-05
4.60225e-05
4.59413e-05
4.58596e-05
4.57781e-05
4.56971e-05
4.56167e-05
4.55369e-05
4.54576e-05
4.53785e-05
4.52999e-05
4.52216e-05
4.51439e-05
4.50671e-05
4.49915e-05
4.49177e-05
4.48461e-05
4.47772e-05
4.47117e-05
4.465e-05
4.45925e-05
4.45396e-05
4.44915e-05
4.44484e-05
4.44102e-05
4.43769e-05
4.43483e-05
4.43241e-05
4.43039e-05
4.42876e-05
4.42747e-05
4.42649e-05
4.4258e-05
4.4254e-05
4.42528e-05
4.42539e-05
4.42582e-05
4.42658e-05
4.42803e-05
4.42984e-05
4.42984e-05
4.63868e-05
4.64248e-05
4.64482e-05
4.64509e-05
4.64396e-05
4.64105e-05
4.63655e-05
4.63069e-05
4.62383e-05
4.61633e-05
4.60845e-05
4.60037e-05
4.59223e-05
4.58415e-05
4.57616e-05
4.56826e-05
4.56044e-05
4.55266e-05
4.54489e-05
4.53712e-05
4.52934e-05
4.52153e-05
4.51374e-05
4.50598e-05
4.49833e-05
4.49081e-05
4.4835e-05
4.47647e-05
4.46977e-05
4.46347e-05
4.45762e-05
4.45226e-05
4.44741e-05
4.44309e-05
4.4393e-05
4.43603e-05
4.43326e-05
4.43094e-05
4.42905e-05
4.42754e-05
4.42637e-05
4.4255e-05
4.42491e-05
4.42458e-05
4.4245e-05
4.42466e-05
4.42514e-05
4.42598e-05
4.42757e-05
4.42958e-05
4.42958e-05
4.64152e-05
4.64545e-05
4.64763e-05
4.64759e-05
4.64596e-05
4.64234e-05
4.63706e-05
4.63056e-05
4.62311e-05
4.61507e-05
4.60682e-05
4.59855e-05
4.59041e-05
4.58242e-05
4.57459e-05
4.5669e-05
4.5593e-05
4.55172e-05
4.54414e-05
4.53649e-05
4.52877e-05
4.52096e-05
4.5131e-05
4.50523e-05
4.49741e-05
4.4897e-05
4.48219e-05
4.47495e-05
4.46805e-05
4.46155e-05
4.45553e-05
4.45003e-05
4.44508e-05
4.44071e-05
4.4369e-05
4.43365e-05
4.43093e-05
4.4287e-05
4.42692e-05
4.42554e-05
4.42449e-05
4.42374e-05
4.42326e-05
4.42304e-05
4.42302e-05
4.42324e-05
4.42379e-05
4.42469e-05
4.42641e-05
4.4286e-05
4.4286e-05
4.646e-05
4.64985e-05
4.65174e-05
4.65123e-05
4.64885e-05
4.64438e-05
4.63823e-05
4.63092e-05
4.62285e-05
4.61431e-05
4.60566e-05
4.59718e-05
4.58898e-05
4.58105e-05
4.57337e-05
4.56588e-05
4.55848e-05
4.55109e-05
4.54366e-05
4.53611e-05
4.52842e-05
4.52057e-05
4.51261e-05
4.50458e-05
4.49654e-05
4.48859e-05
4.48081e-05
4.47329e-05
4.46611e-05
4.45937e-05
4.45312e-05
4.44743e-05
4.44232e-05
4.43782e-05
4.43395e-05
4.43067e-05
4.42797e-05
4.4258e-05
4.4241e-05
4.42282e-05
4.42189e-05
4.42127e-05
4.4209e-05
4.42077e-05
4.42083e-05
4.42112e-05
4.42174e-05
4.42269e-05
4.42447e-05
4.42675e-05
4.42675e-05
4.65234e-05
4.6559e-05
4.65732e-05
4.65619e-05
4.65287e-05
4.64739e-05
4.64027e-05
4.63206e-05
4.62325e-05
4.61419e-05
4.60521e-05
4.59655e-05
4.58826e-05
4.58035e-05
4.57277e-05
4.5654e-05
4.55813e-05
4.55086e-05
4.54352e-05
4.53602e-05
4.52832e-05
4.52042e-05
4.51233e-05
4.50411e-05
4.49583e-05
4.48759e-05
4.4795e-05
4.47165e-05
4.46414e-05
4.45708e-05
4.45054e-05
4.44459e-05
4.43927e-05
4.43461e-05
4.43061e-05
4.42726e-05
4.42453e-05
4.42236e-05
4.42071e-05
4.4195e-05
4.41866e-05
4.41814e-05
4.41789e-05
4.41784e-05
4.41797e-05
4.41833e-05
4.41898e-05
4.41995e-05
4.42175e-05
4.42404e-05
4.42404e-05
4.66081e-05
4.66388e-05
4.66463e-05
4.66272e-05
4.65828e-05
4.65167e-05
4.64348e-05
4.63431e-05
4.62464e-05
4.61496e-05
4.60562e-05
4.59671e-05
4.58829e-05
4.58034e-05
4.57277e-05
4.56545e-05
4.55823e-05
4.55101e-05
4.54371e-05
4.53622e-05
4.52848e-05
4.52047e-05
4.51222e-05
4.50381e-05
4.49527e-05
4.48674e-05
4.47834e-05
4.47016e-05
4.46231e-05
4.4549e-05
4.44802e-05
4.44175e-05
4.43615e-05
4.43125e-05
4.42707e-05
4.42358e-05
4.42076e-05
4.41855e-05
4.41689e-05
4.41571e-05
4.41492e-05
4.41446e-05
4.41428e-05
4.41428e-05
4.41446e-05
4.41486e-05
4.41553e-05
4.41649e-05
4.41825e-05
4.42048e-05
4.42048e-05
4.6717e-05
4.67405e-05
4.67393e-05
4.67108e-05
4.66539e-05
4.65754e-05
4.64821e-05
4.638e-05
4.62746e-05
4.61709e-05
4.60721e-05
4.59791e-05
4.58923e-05
4.58111e-05
4.57343e-05
4.56606e-05
4.55885e-05
4.55161e-05
4.54423e-05
4.53661e-05
4.52872e-05
4.52057e-05
4.51215e-05
4.50353e-05
4.49476e-05
4.48596e-05
4.47726e-05
4.46878e-05
4.46062e-05
4.4529e-05
4.44571e-05
4.43912e-05
4.43322e-05
4.42803e-05
4.42359e-05
4.41989e-05
4.4169e-05
4.41456e-05
4.41282e-05
4.4116e-05
4.4108e-05
4.41034e-05
4.41016e-05
4.41018e-05
4.41036e-05
4.41076e-05
4.41141e-05
4.41232e-05
4.414e-05
4.41612e-05
4.41612e-05
4.68519e-05
4.68674e-05
4.68557e-05
4.68144e-05
4.67445e-05
4.66532e-05
4.6548e-05
4.64349e-05
4.63201e-05
4.62088e-05
4.61034e-05
4.6005e-05
4.59136e-05
4.58289e-05
4.57498e-05
4.56736e-05
4.55982e-05
4.55227e-05
4.54463e-05
4.5368e-05
4.52871e-05
4.52038e-05
4.51178e-05
4.50297e-05
4.494e-05
4.48499e-05
4.47607e-05
4.46736e-05
4.45897e-05
4.45101e-05
4.44357e-05
4.43674e-05
4.43058e-05
4.42512e-05
4.42041e-05
4.41644e-05
4.41321e-05
4.41066e-05
4.40874e-05
4.40737e-05
4.40646e-05
4.40592e-05
4.40567e-05
4.40563e-05
4.40576e-05
4.40608e-05
4.40665e-05
4.40748e-05
4.40902e-05
4.411e-05
4.411e-05
4.70157e-05
4.70209e-05
4.69969e-05
4.69411e-05
4.68574e-05
4.67529e-05
4.66351e-05
4.65102e-05
4.63848e-05
4.62642e-05
4.61501e-05
4.6044e-05
4.59464e-05
4.58557e-05
4.57695e-05
4.56858e-05
4.56044e-05
4.55238e-05
4.54432e-05
4.53615e-05
4.52779e-05
4.5192e-05
4.5104e-05
4.50144e-05
4.49237e-05
4.48328e-05
4.4743e-05
4.46553e-05
4.45706e-05
4.44901e-05
4.44147e-05
4.43451e-05
4.42819e-05
4.42256e-05
4.41762e-05
4.4134e-05
4.40989e-05
4.40707e-05
4.40488e-05
4.40325e-05
4.4021e-05
4.40136e-05
4.40093e-05
4.40074e-05
4.40073e-05
4.40089e-05
4.40131e-05
4.402e-05
4.40337e-05
4.40517e-05
4.40517e-05
4.72107e-05
4.72018e-05
4.71626e-05
4.70919e-05
4.69941e-05
4.68759e-05
4.67446e-05
4.66067e-05
4.64688e-05
4.63362e-05
4.62111e-05
4.6095e-05
4.5986e-05
4.58822e-05
4.57827e-05
4.5689e-05
4.5599e-05
4.55109e-05
4.54231e-05
4.53351e-05
4.52466e-05
4.51574e-05
4.50675e-05
4.49771e-05
4.48869e-05
4.47975e-05
4.47097e-05
4.46243e-05
4.4542e-05
4.44636e-05
4.43899e-05
4.43214e-05
4.42586e-05
4.4202e-05
4.41518e-05
4.41081e-05
4.40705e-05
4.40393e-05
4.4014e-05
4.39943e-05
4.39793e-05
4.39684e-05
4.39608e-05
4.39559e-05
4.39532e-05
4.39526e-05
4.39544e-05
4.39591e-05
4.39706e-05
4.39867e-05
4.39867e-05
4.74366e-05
4.74095e-05
4.7352e-05
4.72662e-05
4.71543e-05
4.70216e-05
4.68756e-05
4.67225e-05
4.65696e-05
4.64231e-05
4.62832e-05
4.6149e-05
4.6019e-05
4.58958e-05
4.57807e-05
4.56725e-05
4.55681e-05
4.54665e-05
4.53671e-05
4.52697e-05
4.51742e-05
4.50806e-05
4.49888e-05
4.48991e-05
4.48117e-05
4.47268e-05
4.46448e-05
4.45661e-05
4.4491e-05
4.44197e-05
4.43524e-05
4.42896e-05
4.42311e-05
4.41774e-05
4.41287e-05
4.40852e-05
4.40466e-05
4.40129e-05
4.39841e-05
4.39601e-05
4.39406e-05
4.39249e-05
4.39126e-05
4.39031e-05
4.38961e-05
4.38919e-05
4.38907e-05
4.38926e-05
4.39012e-05
4.39153e-05
4.39153e-05
4.76894e-05
4.76405e-05
4.75624e-05
4.74611e-05
4.73346e-05
4.71864e-05
4.70241e-05
4.68547e-05
4.66846e-05
4.65172e-05
4.63516e-05
4.61873e-05
4.60317e-05
4.58857e-05
4.57478e-05
4.56154e-05
4.54886e-05
4.53668e-05
4.525e-05
4.51386e-05
4.50329e-05
4.49334e-05
4.48398e-05
4.47523e-05
4.46706e-05
4.45946e-05
4.45239e-05
4.44583e-05
4.43971e-05
4.434e-05
4.42867e-05
4.42367e-05
4.41894e-05
4.41445e-05
4.4102e-05
4.4062e-05
4.40248e-05
4.39904e-05
4.3959e-05
4.39306e-05
4.39056e-05
4.38839e-05
4.38652e-05
4.38495e-05
4.38366e-05
4.3827e-05
4.38215e-05
4.38202e-05
4.38255e-05
4.38373e-05
4.38373e-05
4.79634e-05
4.78895e-05
4.77892e-05
4.76722e-05
4.75308e-05
4.7366e-05
4.71848e-05
4.69942e-05
4.67982e-05
4.65966e-05
4.63925e-05
4.61966e-05
4.60096e-05
4.58297e-05
4.5656e-05
4.54895e-05
4.5331e-05
4.51807e-05
4.50392e-05
4.49077e-05
4.47875e-05
4.46795e-05
4.4584e-05
4.45005e-05
4.44284e-05
4.43665e-05
4.43136e-05
4.42687e-05
4.42304e-05
4.41973e-05
4.41681e-05
4.41415e-05
4.41156e-05
4.40891e-05
4.40612e-05
4.40318e-05
4.40009e-05
4.39688e-05
4.39365e-05
4.39047e-05
4.38742e-05
4.38454e-05
4.38189e-05
4.37953e-05
4.37748e-05
4.37582e-05
4.37465e-05
4.3741e-05
4.37429e-05
4.37521e-05
4.37521e-05
4.82505e-05
4.81476e-05
4.80232e-05
4.78897e-05
4.77318e-05
4.75472e-05
4.7341e-05
4.71185e-05
4.68817e-05
4.66368e-05
4.63941e-05
4.61581e-05
4.59245e-05
4.56956e-05
4.54739e-05
4.52614e-05
4.50597e-05
4.48699e-05
4.46937e-05
4.45333e-05
4.43917e-05
4.4271e-05
4.41723e-05
4.40949e-05
4.40368e-05
4.39958e-05
4.39695e-05
4.39562e-05
4.39525e-05
4.39548e-05
4.39618e-05
4.39724e-05
4.39823e-05
4.39874e-05
4.39872e-05
4.39807e-05
4.39656e-05
4.39426e-05
4.39135e-05
4.38804e-05
4.3845e-05
4.38086e-05
4.37732e-05
4.374e-05
4.37102e-05
4.36847e-05
4.36652e-05
4.3654e-05
4.3652e-05
4.36588e-05
4.36588e-05
4.85307e-05
4.83961e-05
4.82463e-05
4.80951e-05
4.79168e-05
4.77047e-05
4.74626e-05
4.71948e-05
4.6913e-05
4.66238e-05
4.63331e-05
4.60382e-05
4.57418e-05
4.54486e-05
4.51631e-05
4.48888e-05
4.46284e-05
4.43847e-05
4.41605e-05
4.39596e-05
4.37868e-05
4.36467e-05
4.35423e-05
4.34732e-05
4.34367e-05
4.34259e-05
4.34339e-05
4.34598e-05
4.35032e-05
4.35589e-05
4.36217e-05
4.36886e-05
4.37536e-05
4.38103e-05
4.38555e-05
4.38861e-05
4.3899e-05
4.38971e-05
4.38818e-05
4.3853e-05
4.38152e-05
4.37722e-05
4.3727e-05
4.36827e-05
4.36416e-05
4.36055e-05
4.35765e-05
4.35576e-05
4.35508e-05
4.35555e-05
4.35555e-05
4.87761e-05
4.86087e-05
4.84329e-05
4.82612e-05
4.80552e-05
4.78058e-05
4.75201e-05
4.72074e-05
4.68759e-05
4.65289e-05
4.61683e-05
4.57984e-05
4.54221e-05
4.50446e-05
4.46746e-05
4.43189e-05
4.39824e-05
4.3669e-05
4.33823e-05
4.31273e-05
4.29116e-05
4.27443e-05
4.26332e-05
4.2578e-05
4.25655e-05
4.25836e-05
4.26324e-05
4.2712e-05
4.28183e-05
4.29449e-05
4.30846e-05
4.32323e-05
4.33786e-05
4.35122e-05
4.36269e-05
4.37177e-05
4.37812e-05
4.38157e-05
4.38244e-05
4.38115e-05
4.37792e-05
4.37326e-05
4.36785e-05
4.36219e-05
4.35675e-05
4.35187e-05
4.34782e-05
4.34499e-05
4.34371e-05
4.34394e-05
4.34394e-05
4.89535e-05
4.87519e-05
4.85479e-05
4.83512e-05
4.81165e-05
4.78319e-05
4.7502e-05
4.71359e-05
4.67353e-05
4.63073e-05
4.58579e-05
4.53926e-05
4.49152e-05
4.44321e-05
4.3956e-05
4.34986e-05
4.30674e-05
4.26673e-05
4.23021e-05
4.19777e-05
4.17063e-05
4.1505e-05
4.1387e-05
4.13455e-05
4.13543e-05
4.14037e-05
4.15014e-05
4.16455e-05
4.18298e-05
4.20456e-05
4.2283e-05
4.25347e-05
4.27897e-05
4.30323e-05
4.32497e-05
4.3432e-05
4.35736e-05
4.36713e-05
4.3725e-05
4.37401e-05
4.37247e-05
4.36833e-05
4.36235e-05
4.35549e-05
4.34856e-05
4.3422e-05
4.3368e-05
4.33281e-05
4.33078e-05
4.33067e-05
4.33067e-05
4.90321e-05
4.88032e-05
4.85773e-05
4.83582e-05
4.80918e-05
4.77636e-05
4.73748e-05
4.69313e-05
4.64421e-05
4.5914e-05
4.53537e-05
4.477e-05
4.41695e-05
4.35591e-05
4.29553e-05
4.2376e-05
4.18316e-05
4.13281e-05
4.08685e-05
4.04602e-05
4.01217e-05
3.98806e-05
3.9754e-05
3.97204e-05
3.97472e-05
3.9832e-05
3.99834e-05
4.01999e-05
4.04742e-05
4.07956e-05
4.11512e-05
4.15297e-05
4.19195e-05
4.23019e-05
4.26568e-05
4.29696e-05
4.3228e-05
4.34233e-05
4.35533e-05
4.36204e-05
4.36361e-05
4.36122e-05
4.35554e-05
4.34779e-05
4.33933e-05
4.33126e-05
4.32427e-05
4.31892e-05
4.3159e-05
4.3153e-05
4.3153e-05
4.90075e-05
4.87492e-05
4.84984e-05
4.8251e-05
4.794e-05
4.75475e-05
4.70799e-05
4.65447e-05
4.59481e-05
4.52981e-05
4.46056e-05
4.38818e-05
4.31357e-05
4.23763e-05
4.16249e-05
4.09058e-05
4.02326e-05
3.96116e-05
3.90449e-05
3.85415e-05
3.81278e-05
3.78419e-05
3.77021e-05
3.76726e-05
3.77151e-05
3.78347e-05
3.80416e-05
3.83344e-05
3.87055e-05
3.91432e-05
3.96326e-05
4.01576e-05
4.07056e-05
4.12562e-05
4.17822e-05
4.22629e-05
4.26799e-05
4.30181e-05
4.32661e-05
4.3422e-05
4.34935e-05
4.35023e-05
4.34632e-05
4.33851e-05
4.32867e-05
4.3187e-05
4.30987e-05
4.30289e-05
4.29861e-05
4.29735e-05
4.29735e-05
4.88306e-05
4.85341e-05
4.82475e-05
4.79587e-05
4.75926e-05
4.71288e-05
4.6572e-05
4.5927e-05
4.52025e-05
4.4411e-05
4.35659e-05
4.26817e-05
4.17697e-05
4.08428e-05
3.99284e-05
3.90564e-05
3.82436e-05
3.74964e-05
3.68156e-05
3.6212e-05
3.572e-05
3.53866e-05
3.52303e-05
3.52021e-05
3.52581e-05
3.54103e-05
3.56707e-05
3.60389e-05
3.65076e-05
3.70648e-05
3.7695e-05
3.83793e-05
3.91005e-05
3.98394e-05
4.05663e-05
4.125e-05
4.18652e-05
4.23899e-05
4.28056e-05
4.30991e-05
4.32695e-05
4.33352e-05
4.33285e-05
4.32659e-05
4.31607e-05
4.3042e-05
4.2932e-05
4.28428e-05
4.27842e-05
4.27625e-05
4.27625e-05
4.84211e-05
4.80882e-05
4.77653e-05
4.74325e-05
4.70069e-05
4.64634e-05
4.58006e-05
4.50274e-05
4.41579e-05
4.32073e-05
4.21923e-05
4.11311e-05
4.00377e-05
3.89307e-05
3.78448e-05
3.6814e-05
3.58582e-05
3.49832e-05
3.41884e-05
3.34866e-05
3.29192e-05
3.25401e-05
3.23673e-05
3.23394e-05
3.24077e-05
3.25896e-05
3.28997e-05
3.33387e-05
3.39001e-05
3.45725e-05
3.53408e-05
3.61858e-05
3.70857e-05
3.80217e-05
3.89655e-05
3.98788e-05
4.0727e-05
4.1479e-05
4.21081e-05
4.25924e-05
4.29167e-05
4.30853e-05
4.31356e-05
4.3103e-05
4.30065e-05
4.28723e-05
4.27377e-05
4.26255e-05
4.25473e-05
4.25137e-05
4.25137e-05
4.7736e-05
4.73708e-05
4.70137e-05
4.66373e-05
4.61448e-05
4.55026e-05
4.47161e-05
4.38007e-05
4.27722e-05
4.16485e-05
4.0451e-05
3.92028e-05
3.79197e-05
3.66283e-05
3.53712e-05
3.41846e-05
3.30904e-05
3.20938e-05
3.11929e-05
3.04021e-05
2.97683e-05
2.93509e-05
2.91658e-05
2.91396e-05
2.92199e-05
2.94298e-05
2.97856e-05
3.0289e-05
3.09347e-05
3.17124e-05
3.26082e-05
3.36042e-05
3.46781e-05
3.58066e-05
3.69669e-05
3.81211e-05
3.92238e-05
4.02357e-05
4.11187e-05
4.18409e-05
4.23766e-05
4.27107e-05
4.28581e-05
4.28787e-05
4.28092e-05
4.26709e-05
4.25119e-05
4.23716e-05
4.22691e-05
4.22198e-05
4.22198e-05
4.67331e-05
4.6336e-05
4.59441e-05
4.55218e-05
4.4948e-05
4.41938e-05
4.32752e-05
4.22083e-05
4.1011e-05
3.9706e-05
3.83206e-05
3.68827e-05
3.54109e-05
3.39406e-05
3.25219e-05
3.1191e-05
2.99713e-05
2.88666e-05
2.78739e-05
2.7009e-05
2.63233e-05
2.58796e-05
2.56906e-05
2.56702e-05
2.5764e-05
2.6002e-05
2.64008e-05
2.69631e-05
2.7684e-05
2.85548e-05
2.95631e-05
3.06932e-05
3.19249e-05
3.32337e-05
3.4596e-05
3.59806e-05
3.73415e-05
3.86291e-05
3.97954e-05
4.0795e-05
4.159e-05
4.21505e-05
4.24643e-05
4.25718e-05
4.25476e-05
4.24269e-05
4.22481e-05
4.20742e-05
4.19422e-05
4.18731e-05
4.18731e-05
4.53788e-05
4.49566e-05
4.45369e-05
4.40559e-05
4.33827e-05
4.25065e-05
4.14472e-05
4.02213e-05
3.88504e-05
3.73633e-05
3.57928e-05
3.41697e-05
3.25205e-05
3.08884e-05
2.93249e-05
2.78687e-05
2.65424e-05
2.53485e-05
2.42828e-05
2.33628e-05
2.26433e-05
2.21888e-05
2.2007e-05
2.19981e-05
2.21087e-05
2.23772e-05
2.28193e-05
2.34371e-05
2.42264e-05
2.51793e-05
2.6285e-05
2.75301e-05
2.88973e-05
3.03651e-05
3.19074e-05
3.34994e-05
3.51012e-05
3.66589e-05
3.81178e-05
3.942e-05
4.05122e-05
4.13491e-05
4.1897e-05
4.21545e-05
4.22045e-05
4.21201e-05
4.19362e-05
4.17279e-05
4.15587e-05
4.14646e-05
4.14646e-05
4.36139e-05
4.31616e-05
4.26952e-05
4.21432e-05
4.1378e-05
4.0391e-05
3.91977e-05
3.78168e-05
3.62775e-05
3.46162e-05
3.28722e-05
3.10777e-05
2.92701e-05
2.74998e-05
2.58161e-05
2.42587e-05
2.28489e-05
2.15872e-05
2.0469e-05
1.95147e-05
1.87826e-05
1.83355e-05
1.817e-05
1.8178e-05
1.83124e-05
1.86167e-05
1.91048e-05
1.97781e-05
2.06323e-05
2.166e-05
2.28514e-05
2.41949e-05
2.56761e-05
2.7277e-05
2.89748e-05
3.07431e-05
3.2554e-05
3.43589e-05
3.60964e-05
3.77045e-05
3.91148e-05
4.02643e-05
4.10994e-05
4.15862e-05
4.17562e-05
4.17284e-05
4.15645e-05
4.13255e-05
4.11096e-05
4.09849e-05
4.09849e-05
4.1438e-05
4.09742e-05
4.04743e-05
3.98533e-05
3.89834e-05
3.78681e-05
3.65293e-05
3.49925e-05
3.32929e-05
3.14718e-05
2.95728e-05
2.763e-05
2.56899e-05
2.38092e-05
2.20335e-05
2.04018e-05
1.89331e-05
1.76254e-05
1.64747e-05
1.55068e-05
1.47842e-05
1.43637e-05
1.42211e-05
1.42506e-05
1.44186e-05
1.4766e-05
1.53053e-05
1.60372e-05
1.69567e-05
1.80565e-05
1.93272e-05
2.0758e-05
2.23364e-05
2.40477e-05
2.58738e-05
2.77909e-05
2.97736e-05
3.17863e-05
3.37728e-05
3.56667e-05
3.73933e-05
3.8873e-05
4.0032e-05
4.08067e-05
4.11736e-05
4.12367e-05
4.11127e-05
4.0855e-05
4.0586e-05
4.04232e-05
4.04232e-05
3.87597e-05
3.82414e-05
3.76616e-05
3.69754e-05
3.60399e-05
3.4841e-05
3.33953e-05
3.17338e-05
2.99003e-05
2.79448e-05
2.59153e-05
2.38542e-05
2.18144e-05
1.98521e-05
1.80133e-05
1.63343e-05
1.48306e-05
1.34974e-05
1.23328e-05
1.13702e-05
1.06772e-05
1.03004e-05
1.01894e-05
1.02457e-05
1.04557e-05
1.08548e-05
1.14527e-05
1.2249e-05
1.3238e-05
1.44114e-05
1.57591e-05
1.72708e-05
1.89357e-05
2.07419e-05
2.26749e-05
2.4715e-05
2.68374e-05
2.90171e-05
3.12105e-05
3.33534e-05
3.5371e-05
3.71748e-05
3.86723e-05
3.97743e-05
4.04138e-05
4.06231e-05
4.0556e-05
4.03039e-05
3.99823e-05
3.9769e-05
3.9769e-05
3.56666e-05
3.51553e-05
3.458e-05
3.38366e-05
3.27945e-05
3.14617e-05
2.98776e-05
2.80837e-05
2.61272e-05
2.40603e-05
2.19283e-05
1.97804e-05
1.76739e-05
1.56606e-05
1.37865e-05
1.20851e-05
1.05682e-05
9.22803e-06
8.0666e-06
7.12631e-06
6.47977e-06
6.16114e-06
6.09045e-06
6.18035e-06
6.44093e-06
6.90069e-06
7.56607e-06
8.43453e-06
9.49835e-06
1.07473e-05
1.2172e-05
1.3763e-05
1.55103e-05
1.74029e-05
1.94282e-05
2.15708e-05
2.38112e-05
2.61259e-05
2.84834e-05
3.08311e-05
3.3097e-05
3.51955e-05
3.7023e-05
3.84712e-05
3.94333e-05
3.9854e-05
3.98787e-05