# vtk DataFile Version 2.0
insac
ASCII
DATASET STRUCTURED_GRID
DIMENSIONS 51 51 1
POINTS 2601 float
0 0 0
0.02 0 0
0.04 0 0
0.06 0 0
0.08 0 0
0.1 0 0
0.12 0 0
0.14 0 0
0.16 0 0
0.18 0 0
0.2 0 0
0.22 0 0
0.24 0 0
0.26 0 0
0.28 0 0
0.3 0 0
0.32 0 0
0.34 0 0
0.36 0 0
0.38 0 0
0.4 0 0
0.42 0 0
0.44 0 0
0.46 0 0
0.48 0 0
0.5 0 0
0.52 0 0
0.54 0 0
0.56 0 0
0.58 0 0
0.6 0 0
0.62 0 0
0.64 0 0
0.66 0 0
0.68 0 0
0.7 0 0
0.72 0 0
0.74 0 0
0.76 0 0
0.78 0 0
0.8 0 0
0.82 0 0
0.84 0 0
0.86 0 0
0.88 0 0
0.9 0 0
0.92 0 0
0.94 0 0
0.96 0 0
0.98 0 0
1 0 0
0 0.02 0
0.02 0.02 0
0.04 0.02 0
0.06 0.02 0
0.08 0.02 0
0.1 0.02 0
0.12 0.02 0
0.14 0.02 0
0.16 0.02 0
0.18 0.02 0
0.2 0.02 0
0.22 0.02 0
0.24 0.02 0
0.26 0.02 0
0.28 0.02 0
0.3 0.02 0
0.32 0.02 0
0.34 0.02 0
0.36 0.02 0
0.38 0.02 0
0.4 0.02 0
0.42 0.02 0
0.44 0.02 0
0.46 0.02 0
0.48 0.02 0
0.5 0.02 0
0.52 0.02 0
0.54 0.02 0
0.56 0.02 0
0.58 0.02 0
0.6 0.02 0
0.62 0.02 0
0.64 0.02 0
0.66 0.02 0
0.68 0.02 0
0.7 0.02 0
0.72 0.02 0
0.74 0.02 0
0.76 0.02 0
0.78 0.02 0
0.8 0.02 0
0.82 0.02 0
0.84 0.02 0
0.86 0.02 0
0.88 0.02 0
0.9 0.02 0
0.92 0.02 0
0.94 0.02 0
0.96 0.02 0
0.98 0.02 0
1 0.02 0
0 0.04 0
0.02 0.04 0
0.04 0.04 0
0.06 0.04 0
0.08 0.04 0
0.1 0.04 0
0.12 0.04 0
0.14 0.04 0
0.16 0.04 0
0.18 0.04 0
0.2 0.04 0
0.22 0.04 0
0.24 0.04 0
0.26 0.04 0
0.28 0.04 0
0.3 0.04 0
0.32 0.04 0
0.34 0.04 0
0.36 0.04 0
0.38 0.04 0
0.4 0.04 0
0.42 0.04 0
0.44 0.04 0
0.46 0.04 0
0.48 0.04 0
0.5 0.04 0
0.52 0.04 0
0.54 0.04 0
0.56 0.04 0
0.58 0.04 0
0.6 0.04 0
0.62 0.04 0
0.64 0.04 0
0.66 0.04 0
0.68 0.04 0
0.7 0.04 0
0.72 0.04 0
0.74 0.04 0
0.76 0.04 0
0.78 0.04 0
0.8 0.04 0
0.82 0.04 0
0.84 0.04 0
0.86 0.04 0
0.88 0.04 0
0.9 0.04 0
0.92 0.04 0
0.94 0.04 0
0.96 0.04 0
0.98 0.04 0
1 0.04 0
0 0.06 0
0.02 0.06 0
0.04 0.06 0
0.06 0.06 0
0.08 0.06 0
0.1 0.06 0
0.12 0.06 0
0.14 0.06 0
0.16 0.06 0
0.18 0.06 0
0.2 0.06 0
0.22 0.06 0
0.24 0.06 0
0.26 0.06 0
0.28 0.06 0
0.3 0.06 0
0.32 0.06 0
0.34 0.06 0
0.36 0.06 0
0.38 0.06 0
0.4 0.06 0
0.42 0.06 0
0.44 0.06 0
0.46 0.06 0
0.48 0.06 0
0.5 0.06 0
0.52 0.06 0
0.54 0.06 0
0.56 0.06 0
0.58 0.06 0
0.6 0.06 0
0.62 0.06 0
0.64 0.06 0
0.66 0.06 0
0.68 0.06 0
0.7 0.06 0
0.72 0.06 0
0.74 0.06 0
0.76 0.06 0
0.78 0.06 0
0.8 0.06 0
0.82 0.06 0
0.84 0.06 0
0.86 0.06 0
0.88 0.06 0
0.9 0.06 0
0.92 0.06 0
0.94 0.06 0
0.96 0.06 0
0.98 0.06 0
1 0.06 0
0 0.08 0
0.02 0.08 0
0.04 0.08 0
0.06 0.08 0
0.08 0.08 0
0.1 0.08 0
0.12 0.08 0
0.14 0.08 0
0.16 0.08 0
0.18 0.08 0
0.2 0.08 0
0.22 0.08 0
0.24 0.08 0
0.26 0.08 0
0.28 0.08 0
0.3 0.08 0
0.32 0.08 0
0.34 0.08 0
0.36 0.08 0
0.38 0.08 0
0.4 0.08 0
0.42 0.08 0
0.44 0.08 0
0.46 0.08 0
0.48 0.08 0
0.5 0.08 0
0.52 0.08 0
0.54 0.08 0
0.56 0.08 0
0.58 0.08 0
0.6 0.08 0
0.62 0.08 0
0.64 0.08 0
0.66 0.08 0
0.68 0.08 0
0.7 0.08 0
0.72 0.08 0
0.74 0.08 0
0.76 0.08 0
0.78 0.08 0
0.8 0.08 0
0.82 0.08 0
0.84 0.08 0
0.86 0.08 0
0.88 0.08 0
0.9 0.08 0
0.92 0.08 0
0.94 0.08 0
0.96 0.08 0
0.98 0.08 0
1 0.08 0
0 0.1 0
0.02 0.1 0
0.04 0.1 0
0.06 0.1 0
0.08 0.1 0
0.1 0.1 0
0.12 0.1 0
0.14 0.1 0
0.16 0.1 0
0.18 0.1 0
0.2 0.1 0
0.22 0.1 0
0.24 0.1 0
0.26 0.1 0
0.28 0.1 0
0.3 0.1 0
0.32 0.1 0
0.34 0.1 0
0.36 0.1 0
0.38 0.1 0
0.4 0.1 0
0.42 0.1 0
0.44 0.1 0
0.46 0.1 0
0.48 0.1 0
0.5 0.1 0
0.52 0.1 0
0.54 0.1 0
0.56 0.1 0
0.58 0.1 0
0.6 0.1 0
0.62 0.1 0
0.64 0.1 0
0.66 0.1 0
0.68 0.1 0
0.7 0.1 0
0.72 0.1 0
0.74 0.1 0
0.76 0.1 0
0.78 0.1 0
0.8 0.1 0
0.82 0.1 0
0.84 0.1 0
0.86 0.1 0
0.88 0.1 0
0.9 0.1 0
0.92 0.1 0
0.94 0.1 0
0.96 0.1 0
0.98 0.1 0
1 0.1 0
0 0.12 0
0.02 0.12 0
0.04 0.12 0
0.06 0.12 0
0.08 0.12 0
0.1 0.12 0
0.12 0.12 0
0.14 0.12 0
0.16 0.12 0
0.18 0.12 0
0.2 0.12 0
0.22 0.12 0
0.24 0.12 0
0.26 0.12 0
0.28 0.12 0
0.3 0.12 0
0.32 0.12 0
0.34 0.12 0
0.36 0.12 0
0.38 0.12 0
0.4 0.12 0
0.42 0.12 0
0.44 0.12 0
0.46 0.12 0
0.48 0.12 0
0.5 0.12 0
0.52 0.12 0
0.54 0.12 0
0.56 0.12 0
0.58 0.12 0
0.6 0.12 0
0.62 0.12 0
0.64 0.12 0
0.66 0.12 0
0.68 0.12 0
0.7 0.12 0
0.72 0.12 0
0.74 0.12 0
0.76 0.12 0
0.78 0.12 0
0.8 0.12 0
0.82 0.12 0
0.84 0.12 0
0.86 0.12 0
0.88 0.12 0
0.9 0.12 0
0.92 0.12 0
0.94 0.12 0
0.96 0.12 0
0.98 0.12 0
1 0.12 0
0 0.14 0
0.02 0.14 0
0.04 0.14 0
0.06 0.14 0
0.08 0.14 0
0.1 0.14 0
0.12 0.14 0
0.14 0.14 0
0.16 0.14 0
0.18 0.14 0
0.2 0.14 0
0.22 0.14 0
0.24 0.14 0
0.26 0.14 0
0.28 0.14 0
0.3 0.14 0
0.32 0.14 0
0.34 0.14 0
0.36 0.14 0
0.38 0.14 0
0.4 0.14 0
0.42 0.14 0
0.44 0.14 0
0.46 0.14 0
0.48 0.14 0
0.5 0.14 0
0.52 0.14 0
0.54 0.14 0
0.56 0.14 0
0.58 0.14 0
0.6 0.14 0
0.62 0.14 0
0.64 0.14 0
0.66 0.14 0
0.68 0.14 0
0.7 0.14 0
0.72 0.14 0
0.74 0.14 0
0.76 0.14 0
0.78 0.14 0
0.8 0.14 0
0.82 0.14 0
0.84 0.14 0
0.86 0.14 0
0.88 0.14 0
0.9 0.14 0
0.92 0.14 0
0.94 0.14 0
0.96 0.14 0
0.98 0.14 0
1 0.14 0
0 0.16 0
0.02 0.16 0
0.04 0.16 0
0.06 0.16 0
0.08 0.16 0
0.1 0.16 0
0.12 0.16 0
0.14 0.16 0
0.16 0.16 0
0.18 0.16 0
0.2 0.16 0
0.22 0.16 0
0.24 0.16 0
0.26 0.16 0
0.28 0.16 0
0.3 0.16 0
0.32 0.16 0
0.34 0.16 0
0.36 0.16 0
0.38 0.16 0
0.4 0.16 0
0.42 0.16 0
0.44 0.16 0
0.46 0.16 0
0.48 0.16 0
0.5 0.16 0
0.52 0.16 0
0.54 0.16 0
0.56 0.16 0
0.58 0.16 0
0.6 0.16 0
0.62 0.16 0
0.64 0.16 0
0.66 0.16 0
0.68 0.16 0
0.7 0.16 0
0.72 0.16 0
0.74 0.16 0
0.76 0.16 0
0.78 0.16 0
0.8 0.16 0
0.82 0.16 0
0.84 0.16 0
0.86 0.16 0
0.88 0.16 0
0.9 0.16 0
0.92 0.16 0
0.94 0.16 0
0.96 0.16 0
0.98 0.16 0
1 0.16 0
0 0.18 0
0.02 0.18 0
0.04 0.18 0
0.06 0.18 0
0.08 0.18 0
0.1 0.18 0
0.12 0.18 0
0.14 0.18 0
0.16 0.18 0
0.18 0.18 0
0.2 0.18 0
0.22 0.18 0
0.24 0.18 0
0.26 0.18 0
0.28 0.18 0
0.3 0.18 0
0.32 0.18 0
0.34 0.18 0
0.36 0.18 0
0.38 0.18 0
0.4 0.18 0
0.42 0.18 0
0.44 0.18 0
0.46 0.18 0
0.48 0.18 0
0.5 0.18 0
0.52 0.18 0
0.54 0.18 0
0.56 0.18 0
0.58 0.18 0
0.6 0.18 0
0.62 0.18 0
0.64 0.18 0
0.66 0.18 0
0.68 0.18 0
0.7 0.18 0
0.72 0.18 0
0.74 0.18 0
0.76 0.18 0
0.78 0.18 0
0.8 0.18 0
0.82 0.18 0
0.84 0.18 0
0.86 0.18 0
0.88 0.18 0
0.9 0.18 0
0.92 0.18 0
0.94 0.18 0
0.96 0.18 0
0.98 0.18 0
1 0.18 0
0 0.2 0
0.02 0.2 0
0.04 0.2 0
0.06 0.2 0
0.08 0.2 0
0.1 0.2 0
0.12 0.2 0
0.14 0.2 0
0.16 0.2 0
0.18 0.2 0
0.2 0.2 0
0.22 0.2 0
0.24 0.2 0
0.26 0.2 0
0.28 0.2 0
0.3 0.2 0
0.32 0.2 0
0.34 0.2 0
0.36 0.2 0
0.38 0.2 0
0.4 0.2 0
0.42 0.2 0
0.44 0.2 0
0.46 0.2 0
0.48 0.2 0
0.5 0.2 0
0.52 0.2 0
0.54 0.2 0
0.56 0.2 0
0.58 0.2 0
0.6 0.2 0
0.62 0.2 0
0.64 0.2 0
0.66 0.2 0
0.68 0.2 0
0.7 0.2 0
0.72 0.2 0
0.74 0.2 0
0.76 0.2 0
0.78 0.2 0
0.8 0.2 0
0.82 0.2 0
0.84 0.2 0
0.86 0.2 0
0.88 0.2 0
0.9 0.2 0
0.92 0.2 0
0.94 0.2 0
0.96 0.2 0
0.98 0.2 0
1 0.2 0
0 0.22 0
0.02 0.22 0
0.04 0.22 0
0.06 0.22 0
0.08 0.22 0
0.1 0.22 0
0.12 0.22 0
0.14 0.22 0
0.16 0.22 0
0.18 0.22 0
0.2 0.22 0
0.22 0.22 0
0.24 0.22 0
0.26 0.22 0
0.28 0.22 0
0.3 0.22 0
0.32 0.22 0
0.34 0.22 0
0.36 0.22 0
0.38 0.22 0
0.4 0.22 0
0.42 0.22 0
0.44 0.22 0
0.46 0.22 0
0.48 0.22 0
0.5 0.22 0
0.52 0.22 0
0.54 0.22 0
0.56 0.22 0
0.58 0.22 0
0.6 0.22 0
0.62 0.22 0
0.64 0.22 0
0.66 0.22 0
0.68 0.22 0
0.7 0.22 0
0.72 0.22 0
0.74 0.22 0
0.76 0.22 0
0.78 0.22 0
0.8 0.22 0
0.82 0.22 0
0.84 0.22 0
0.86 0.22 0
0.88 0.22 0
0.9 0.22 0
0.92 0.22 0
0.94 0.22 0
0.96 0.22 0
0.98 0.22 0
1 0.22 0
0 0.24 0
0.02 0.24 0
0.04 0.24 0
0.06 0.24 0
0.08 0.24 0
0.1 0.24 0
0.12 0.24 0
0.14 0.24 0
0.16 0.24 0
0.18 0.24 0
0.2 0.24 0
0.22 0.24 0
0.24 0.24 0
0.26 0.24 0
0.28 0.24 0
0.3 0.24 0
0.32 0.24 0
0.34 0.24 0
0.36 0.24 0
0.38 0.24 0
0.4 0.24 0
0.42 0.24 0
0.44 0.24 0
0.46 0.24 0
0.48 0.24 0
0.5 0.24 0
0.52 0.24 0
0.54 0.24 0
0.56 0.24 0
0.58 0.24 0
0.6 0.24 0
0.62 0.24 0
0.64 0.24 0
0.66 0.24 0
0.68 0.24 0
0.7 0.24 0
0.72 0.24 0
0.74 0.24 0
0.76 0.24 0
0.78 0.24 0
0.8 0.24 0
0.82 0.24 0
0.84 0.24 0
0.86 0.24 0
0.88 0.24 0
0.9 0.24 0
0.92 0.24 0
0.94 0.24 0
0.96 0.24 0
0.98 0.24 0
1 0.24 0
0 0.26 0
0.02 0.26 0
0.04 0.26 0
0.06 0.26 0
0.08 0.26 0
0.1 0.26 0
0.12 0.26 0
0.14 0.26 0
0.16 0.26 0
0.18 0.26 0
0.2 0.26 0
0.22 0.26 0
0.24 0.26 0
0.26 0.26 0
0.28 0.26 0
0.3 0.26 0
0.32 0.26 0
0.34 0.26 0
0.36 0.26 0
0.38 0.26 0
0.4 0.26 0
0.42 0.26 0
0.44 0.26 0
0.46 0.26 0
0.48 0.26 0
0.5 0.26 0
0.52 0.26 0
0.54 0.26 0
0.56 0.26 0
0.58 0.26 0
0.6 0.26 0
0.62 0.26 0
0.64 0.26 0
0.66 0.26 0
0.68 0.26 0
0.7 0.26 0
0.72 0.26 0
0.74 0.26 0
0.76 0.26 0
0.78 0.26 0
0.8 0.26 0
0.82 0.26 0
0.84 0.26 0
0.86 0.26 0
0.88 0.26 0
0.9 0.26 0
0.92 0.26 0
0.94 0.26 0
0.96 0.26 0
0.98 0.26 0
1 0.26 0
0 0.28 0
0.02 0.28 0
0.04 0.28 0
0.06 0.28 0
0.08 0.28 0
0.1 0.28 0
0.12 0.28 0
0.14 0.28 0
0.16 0.28 0
0.18 0.28 0
0.2 0.28 0
0.22 0.28 0
0.24 0.28 0
0.26 0.28 0
0.28 0.28 0
0.3 0.28 0
0.32 0.28 0
0.34 0.28 0
0.36 0.28 0
0.38 0.28 0
0.4 0.28 0
0.42 0.28 0
0.44 0.28 0
0.46 0.28 0
0.48 0.28 0
0.5 0.28 0
0.52 0.28 0
0.54 0.28 0
0.56 0.28 0
0.58 0.28 0
0.6 0.28 0
0.62 0.28 0
0.64 0.28 0
0.66 0.28 0
0.68 0.28 0
0.7 0.28 0
0.72 0.28 0
0.74 0.28 0
0.76 0.28 0
0.78 0.28 0
0.8 0.28 0
0.82 0.28 0
0.84 0.28 0
0.86 0.28 0
0.88 0.28 0
0.9 0.28 0
0.92 0.28 0
0.94 0.28 0
0.96 0.28 0
0.98 0.28 0
1 0.28 0
0 0.3 0
0.02 0.3 0
0.04 0.3 0
0.06 0.3 0
0.08 0.3 0
0.1 0.3 0
0.12 0.3 0
0.14 0.3 0
0.16 0.3 0
0.18 0.3 0
0.2 0.3 0
0.22 0.3 0
0.24 0.3 0
0.26 0.3 0
0.28 0.3 0
0.3 0.3 0
0.32 0.3 0
0.34 0.3 0
0.36 0.3 0
0.38 0.3 0
0.4 0.3 0
0.42 0.3 0
0.44 0.3 0
0.46 0.3 0
0.48 0.3 0
0.5 0.3 0
0.52 0.3 0
0.54 0.3 0
0.56 0.3 0
0.58 0.3 0
0.6 0.3 0
0.62 0.3 0
0.64 0.3 0
0.66 0.3 0
0.68 0.3 0
0.7 0.3 0
0.72 0.3 0
0.74 0.3 0
0.76 0.3 0
0.78 0.3 0
0.8 0.3 0
0.82 0.3 0
0.84 0.3 0
0.86 0.3 0
0.88 0.3 0
0.9 0.3 0
0.92 0.3 0
0.94 0.3 0
0.96 0.3 0
0.98 0.3 0
1 0.3 0
0 0.32 0
0.02 0.32 0
0.04 0.32 0
0.06 0.32 0
0.08 0.32 0
0.1 0.32 0
0.12 0.32 0
0.14 0.32 0
0.16 0.32 0
0.18 0.32 0
0.2 0.32 0
0.22 0.32 0
0.24 0.32 0
0.26 0.32 0
0.28 0.32 0
0.3 0.32 0
0.32 0.32 0
0.34 0.32 0
0.36 0.32 0
0.38 0.32 0
0.4 0.32 0
0.42 0.32 0
0.44 0.32 0
0.46 0.32 0
0.48 0.32 0
0.5 0.32 0
0.52 0.32 0
0.54 0.32 0
0.56 0.32 0
0.58 0.32 0
0.6 0.32 0
0.62 0.32 0
0.64 0.32 0
0.66 0.32 0
0.68 0.32 0
0.7 0.32 0
0.72 0.32 0
0.74 0.32 0
0.76 0.32 0
0.78 0.32 0
0.8 0.32 0
0.82 0.32 0
0.84 0.32 0
0.86 0.32 0
0.88 0.32 0
0.9 0.32 0
0.92 0.32 0
0.94 0.32 0
0.96 0.32 0
0.98 0.32 0
1 0.32 0
0 0.34 0
0.02 0.34 0
0.04 0.34 0
0.06 0.34 0
0.08 0.34 0
[...]
POINT_DATA 2601
SCALARS pressure float 1
LOOKUP_TABLE default
3.88132
3.88261
3.88527
3.88766
3.88884
3.8881
3.88511
3.87981
3.87237
3.8631
3.8524
3.84069
3.82836
3.81575
3.80315
3.79073
3.77864
3.76694
3.75567
3.74481
3.73437
3.7243
3.71458
3.70521
3.69616
3.68746
3.6791
3.67112
3.66355
3.65641
3.64975
3.6436
3.63797
3.63289
3.62837
3.62439
3.62096
3.61806
3.61567
3.61376
3.61232
3.61131
3.61073
3.61057
3.61081
3.61144
3.6124
3.6136
3.61485
3.61586
3.61627
3.88004
3.88132
3.88373
3.88564
3.88639
3.88533
3.8822
3.87692
3.86963
3.86062
3.85025
3.8389
3.82694
3.81469
3.8024
3.79025
3.77839
3.76687
3.75573
3.74499
3.73463
3.72462
3.71497
3.70565
3.69667
3.68802
3.67974
3.67184
3.66435
3.6573
3.65073
3.64467
3.63912
3.63412
3.62966
3.62574
3.62236
3.61949
3.61711
3.6152
3.61374
3.6127
3.61207
3.61183
3.61197
3.61246
3.61325
3.61427
3.61534
3.61627
3.61669
3.87737
3.87889
3.88131
3.88273
3.88297
3.8815
3.87812
3.87279
3.86563
3.85689
3.8469
3.83601
3.82453
3.81277
3.80093
3.78921
3.7777
3.76648
3.75559
3.74504
3.73483
3.72496
3.71541
3.70618
3.69729
3.68875
3.68057
3.67278
3.66541
3.6585
3.65207
3.64614
3.64073
3.63585
3.63151
3.62769
3.6244
3.62159
3.61926
3.61737
3.6159
3.61483
3.61412
3.61377
3.61375
3.61404
3.6146
3.61538
3.61626
3.61722
3.61773
3.87479
3.8768
3.87978
3.88124
3.88135
3.87964
3.87601
3.87045
3.86313
3.85432
3.84436
3.83357
3.82229
3.81077
3.79923
3.78779
3.77657
3.76562
3.75496
3.74461
3.73456
3.7248
3.71535
3.7062
3.69736
3.68887
3.68074
3.67301
3.6657
3.65886
3.65251
3.64667
3.64137
3.63659
3.63236
3.62865
3.62545
3.62273
3.62047
3.61863
3.61719
3.61612
3.61539
3.61498
3.61487
3.61506
3.61552
3.61623
3.61711
3.6183
3.61902
3.87292
3.87542
3.879
3.88055
3.88054
3.87853
3.8745
3.86852
3.86083
3.85174
3.84161
3.8308
3.8196
3.80827
3.79699
3.78586
3.77495
3.7643
3.75391
3.74379
3.73392
3.72429
3.71493
3.70583
3.69703
3.68855
3.68042
3.6727
3.66541
3.6586
3.65229
3.64652
3.64129
3.63662
3.63249
3.6289
3.62581
3.62321
3.62105
3.6193
3.61793
3.61689
3.61618
3.61575
3.6156
3.61574
3.61614
3.61685
3.61779
3.61926
3.62022
3.87223
3.87516
3.87925
3.88086
3.88063
3.87817
3.87355
3.86694
3.85865
3.84907
3.83862
3.82765
3.81646
3.80528
3.79424
3.78343
3.77287
3.76256
3.75248
3.74261
3.73294
3.72345
3.71416
3.70509
3.69627
3.68774
3.67956
3.67178
3.66444
3.6576
3.65128
3.64553
3.64035
3.63575
3.63172
3.62824
3.62529
3.62282
3.62079
3.61916
3.6179
3.61695
3.61629
3.6159
3.61576
3.61589
3.6163
3.61705
3.61809
3.61984
3.62102
3.87299
3.87625
3.88068
3.88219
3.88156
3.87842
3.87298
3.8655
3.85643
3.84621
3.83531
3.82412
3.8129
3.80187
3.7911
3.78064
3.77047
3.76054
3.7508
3.74121
3.73174
3.72238
3.71314
3.70405
3.69516
3.68653
3.67822
3.67031
3.66285
3.6559
3.64951
3.64372
3.63855
3.63399
3.63004
3.62667
3.62384
3.62152
3.61965
3.61817
3.61705
3.61623
3.61567
3.61536
3.61528
3.61546
3.61591
3.61672
3.61786
3.61986
3.62122
3.87546
3.87894
3.88352
3.88471
3.88343
3.87937
3.87286
3.86431
3.85427
3.84329
3.83188
3.82041
3.80917
3.79828
3.78782
3.77774
3.76798
3.75845
3.74907
3.73976
3.73049
3.72123
3.712
3.70285
3.69383
3.68502
3.67651
3.66838
3.66072
3.65359
3.64706
3.64117
3.63594
3.63137
3.62746
3.62417
3.62147
3.61929
3.61759
3.61629
3.61533
3.61467
3.61426
3.61407
3.61409
3.61434
3.61485
3.61574
3.61698
3.61916
3.62067
3.87995
3.88354
3.88803
3.88865
3.88645
3.8812
3.87339
3.86359
3.85245
3.84063
3.82865
3.8169
3.80562
3.7949
3.78474
3.77504
3.7657
3.75656
3.74752
3.73848
3.72937
3.72017
3.71091
3.70164
3.69243
3.68337
3.67458
3.66616
3.65822
3.65083
3.64408
3.63801
3.63265
3.62802
3.6241
3.62086
3.61825
3.6162
3.61465
3.61353
3.61276
3.61228
3.61203
3.61199
3.61213
3.61248
3.61307
3.61403
3.61534
3.61766
3.61925
3.88686
3.89042
3.89456
3.89435
3.89094
3.88426
3.87495
3.86374
3.85142
3.8387
3.82612
3.81408
3.80274
3.79216
3.78227
3.77292
3.76394
3.75515
3.7464
3.73756
3.72856
3.71938
3.71003
3.70058
3.69112
3.68176
3.67263
3.66385
3.65555
3.64782
3.64077
3.63445
3.6289
3.62414
3.62014
3.61689
3.61432
3.61237
3.61095
3.60998
3.60939
3.60908
3.60901
3.60912
3.6094
3.60985
3.61053
3.61154
3.6129
3.61528
3.61691
3.89666
3.90003
3.90353
3.90221
3.89733
3.88899
3.87802
3.86529
3.85172
3.83806
3.82486
3.81247
3.80102
3.79051
3.78079
3.77169
3.76297
3.75443
3.74586
3.73714
3.72818
3.71894
3.70944
3.69977
3.69001
3.68031
3.67079
3.66161
3.65291
3.6448
3.63739
3.63075
3.62494
3.61996
3.61583
3.61249
3.6099
3.60797
3.60663
3.60578
3.60533
3.60518
3.60526
3.60551
3.60591
3.60646
3.6072
3.60826
3.60963
3.612
3.61363
3.9099
3.91287
3.9154
3.91269
3.90611
3.89594
3.88318
3.86887
3.85399
3.83933
3.82543
3.8126
3.8009
3.79029
3.78058
3.77154
3.7629
3.75443
3.7459
3.73718
3.72815
3.71878
3.70909
3.69917
3.68911
3.67905
3.66916
3.65957
3.65046
3.64194
3.63415
3.62715
3.62102
3.61578
3.61143
3.60793
3.60524
3.60327
3.60193
3.60113
3.60075
3.60069
3.60088
3.60124
3.60172
3.60234
3.60312
3.60418
3.60554
3.60785
3.60943
3.9271
3.92945
3.93064
3.92631
3.91782
3.90569
3.89106
3.87509
3.85882
3.84305
3.8283
3.81482
3.80265
3.79167
3.78168
3.77241
3.76358
3.75493
3.74624
3.73734
3.72813
3.71856
3.70865
3.69848
3.68816
3.67781
3.6676
3.65769
3.64822
3.63936
3.6312
3.62386
3.6174
3.61185
3.60723
3.60351
3.60063
3.59852
3.5971
3.59624
3.59585
3.59581
3.59602
3.59641
3.59693
3.59756
3.59833
3.59936
3.60066
3.60285
3.60435
3.94875
3.95021
3.94968
3.94351
3.93298
3.91878
3.90219
3.88447
3.86668
3.8496
3.83373
3.81927
3.80623
3.79448
3.78378
3.77387
3.76446
3.75529
3.74615
3.73686
3.72733
3.7175
3.70737
3.69702
3.68653
3.67604
3.66568
3.65561
3.64597
3.6369
3.62852
3.62093
3.6142
3.60837
3.60347
3.59947
3.59634
3.59402
3.5924
3.59138
3.59086
3.59072
3.59086
3.59118
3.59164
3.59221
3.5929
3.59384
3.59503
3.59706
3.59846
3.97519
3.97546
3.97282
3.96464
3.95195
3.93562
3.91697
3.89733
3.87777
3.85905
3.84162
3.82567
3.8112
3.79806
3.78605
3.77491
3.76439
3.75424
3.74428
3.73434
3.72432
3.71416
3.70385
3.69344
3.683
3.67263
3.66243
3.65253
3.64305
3.63409
3.62577
3.61816
3.61135
3.60537
3.60026
3.59602
3.59261
3.58999
3.58808
3.58679
3.58601
3.58563
3.58555
3.58569
3.58596
3.58636
3.5869
3.58768
3.5887
3.59054
3.59181
4.0065
4.00528
4.00016
3.98985
3.97491
3.95634
3.93548
3.91365
3.89192
3.87102
3.85138
3.83319
3.81645
3.80109
3.78693
3.77377
3.76142
3.74968
3.73839
3.72744
3.71673
3.70619
3.69579
3.68554
3.67547
3.66564
3.6561
3.64692
3.63815
3.62986
3.6221
3.61494
3.60843
3.60261
3.59751
3.59315
3.58953
3.5866
3.58434
3.58267
3.5815
3.58073
3.58028
3.58007
3.58002
3.58012
3.58039
3.58092
3.58172
3.58332
3.58447
4.04244
4.03943
4.03147
4.01895
4.00169
3.98074
3.95737
3.93291
3.90838
3.8845
3.8617
3.8402
3.8201
3.80138
3.78396
3.76773
3.75258
3.73842
3.72514
3.7127
3.70105
3.69008
3.67971
3.66992
3.66071
3.65203
3.64388
3.63623
3.62904
3.62229
3.61595
3.61002
3.60451
3.59942
3.59479
3.59064
3.587
3.58389
3.58128
3.57916
3.57748
3.57618
3.57518
3.57444
3.57389
3.57354
3.5734
3.57358
3.5741
3.57544
3.57645
4.0823
4.07721
4.0661
4.05131
4.03161
4.00802
3.9817
3.95393
3.92568
3.89767
3.8704
3.8442
3.81926
3.7957
3.77356
3.75289
3.73371
3.71605
3.69992
3.68538
3.67242
3.66092
3.65074
3.64181
3.63404
3.62734
3.62158
3.61659
3.61222
3.60829
3.60466
3.6012
3.59781
3.59445
3.59111
3.58783
3.58464
3.58162
3.57882
3.57628
3.57402
3.57205
3.57034
3.56888
3.56764
3.56666
3.56596
3.56567
3.56582
3.56687
3.56775
4.1248
4.11737
4.10285
4.08573
4.06339
4.03677
4.00681
3.97469
3.94139
3.90773
3.87432
3.84161
3.80998
3.77971
3.75105
3.72425
3.6995
3.67701
3.65697
3.63953
3.62478
3.61259
3.60273
3.59505
3.58942
3.58564
3.58347
3.58258
3.58264
3.58329
3.58417
3.58497
3.58543
3.58537
3.58469
3.58339
3.58153
3.57922
3.57661
3.57385
3.57106
3.56835
3.56577
3.5634
3.56127
3.55945
3.55802
3.55712
3.5568
3.55753
3.55829
4.16801
4.15804
4.13989
4.12034
4.09508
4.06476
4.03006
3.99216
3.95214
3.91091
3.86925
3.82783
3.78726
3.74809
3.71082
3.67593
3.64388
3.61508
3.5899
3.56864
3.55149
3.53832
3.5288
3.52269
3.51982
3.51991
3.5226
3.5274
3.53376
3.5411
3.54879
3.55625
3.56294
3.56847
3.57255
3.57505
3.57599
3.57554
3.57392
3.57142
3.56833
3.56492
3.5614
3.55796
3.55473
3.55187
3.5495
3.54782
3.54693
3.54729
3.54791
4.20928
4.19661
4.17468
4.15255
4.12377
4.08871
4.04785
4.00243
3.9536
3.90248
3.85011
3.79747
3.74549
3.69504
3.64697
3.60204
3.56096
3.52438
3.49284
3.4668
3.44652
3.43195
3.42263
3.4182
3.41849
3.42317
3.43178
3.44371
3.4582
3.47442
3.49146
3.50838
3.5243
3.53844
3.55019
3.55918
3.56526
3.56854
3.56933
3.56807
3.56527
3.56143
3.55702
3.5524
3.54789
3.54377
3.54026
3.53762
3.536
3.53592
3.53639
4.24524
4.2298
4.20393
4.1788
4.14564
4.10455
4.05581
4.00073
3.94066
3.87705
3.81132
3.74487
3.67905
3.61515
3.55435
3.49773
3.44624
3.40072
3.36186
3.33021
3.30614
3.28965
3.2802
3.27727
3.28074
3.29027
3.30536
3.32531
3.34924
3.37613
3.40477
3.43391
3.46221
3.48845
3.51151
3.53056
3.54509
3.55499
3.56051
3.56221
3.56084
3.55724
3.55221
3.54645
3.54054
3.53495
3.53007
3.52627
3.52376
3.52313
3.52341
4.27181
4.25353
4.22348
4.19482
4.15625
4.10757
4.04889
3.98174
3.90785
3.82912
3.74751
3.66498
3.58338
3.50443
3.42964
3.36037
3.29775
3.24273
3.19609
3.15841
3.13009
3.11125
3.10124
3.09944
3.10572
3.11981
3.14121
3.16924
3.20299
3.24132
3.28291
3.3262
3.36951
3.41109
3.44924
3.48247
3.50964
3.53012
3.54383
3.55125
3.55333
3.55125
3.54631
3.53967
3.53235
3.52514
3.51867
3.51346
3.50986
3.50851
3.50854
4.28435
4.26321
4.22878
4.1959
4.15067
4.09257
4.02174
3.94008
3.84989
3.75375
3.65433
3.5542
3.45575
3.36108
3.27202
3.19006
3.11645
3.05216
2.99794
2.95436
2.92178
2.90037
2.88947
2.88835
2.8969
2.91487
2.94182
2.97714
3.02001
3.06934
3.12379
3.18173
3.24127
3.30027
3.3565
3.40772
3.45195
3.48769
3.51413
3.53129
3.53999
3.5417
3.53822
3.5314
3.52289
3.51399
3.5057
3.49883
3.49388
3.4916
3.49128
4.27806
4.25411
4.21508
4.17715
4.1238
4.05437
3.96919
3.87084
3.76239
3.64732
3.52908
3.4109
3.29564
3.18572
3.0831
2.98935
2.9057
2.83305
2.77209
2.72327
2.68686
2.66297
2.65108
2.65047
2.66082
2.68192
2.71342
2.7548
2.80537
2.86421
2.93011
3.00158
3.07675
3.15337
3.22888
3.30047
3.3653
3.42081
3.46504
3.49697
3.51679
3.52581
3.52622
3.5206
3.51149
3.50101
3.49076
3.48193
3.47534
3.47185
3.47103
4.24803
4.22131
4.17742
4.13352
4.07063
3.98811
3.88679
3.77016
3.64238
3.50791
3.37101
3.23549
3.10456
2.98077
2.86613
2.76216
2.66996
2.59034
2.52384
2.4708
2.43136
2.40549
2.39288
2.39283
2.40476
2.42848
2.46368
2.50994
2.56668
2.63318
2.70845
2.79123
2.87991
2.97242
3.06623
3.15831
3.24528
3.3236
3.39
3.44199
3.47837
3.49957
3.50762
3.50565
3.49722
3.48559
3.47334
3.46229
3.45371
3.44864
3.44712
4.18983
4.1605
4.11158
4.06079
3.987
3.88991
3.77123
3.63564
3.4885
3.3353
3.18103
3.02988
2.88522
2.74961
2.62496
2.51265
2.41364
2.32859
2.2579
2.20177
2.16025
2.13322
2.12044
2.12115
2.13469
2.16084
2.19928
2.24964
2.31143
2.38403
2.46669
2.5584
2.65788
2.76344
2.87287
2.98336
3.09145
3.19313
3.2841
3.36031
3.41865
3.45779
3.47859
3.48407
3.47862
3.46686
3.45281
3.43933
3.42836
3.42126
3.41879
4.09904
4.06718
4.01299
3.9546
3.86911
3.75679
3.62047
3.46629
3.3009
3.13071
2.96121
2.7968
2.64082
2.49571
2.36319
2.24448
2.14037
2.05138
1.97777
1.91965
1.87699
1.84961
1.83725
1.83915
1.85455
1.88322
1.92481
1.97895
2.04518
2.12296
2.21165
2.31044
2.41835
2.53407
2.65586
2.7814
2.90763
3.03067
3.14582
3.24796
3.33214
3.39467
3.43418
3.45232
3.45349
3.44357
3.42835
3.41235
3.39864
3.38895
3.38523
3.9731
3.93905
3.87977
3.81322
3.71532
3.58746
3.43397
3.26252
3.08089
2.89619
2.71415
2.53916
2.3744
2.22208
2.08374
1.96041
1.85275
1.76112
1.68574
1.62661
1.58366
1.55666
1.54535
1.5489
1.56656
1.59802
1.64292
1.70087
1.77138
1.85395
1.94798
2.05278
2.16754
2.29124
2.42257
2.55976
2.70037
2.84111
2.97761
3.10448
3.21563
3.30521
3.36898
3.40583
3.41869
3.41383
3.39887
3.38054
3.36374
3.35087
3.34551
3.8083
3.77208
3.7076
3.63295
3.52327
3.38099
3.21203
3.02559
2.83045
2.63415
2.44247
2.2596
2.08845
1.93105
1.78871
1.66231
1.55239
1.45927
1.38308
1.32381
1.28133
1.25542
1.24574
1.25147
1.27183
1.30648
1.35501
1.417
1.49195
1.5793
1.67848
1.78882
1.90961
2.04
2.17895
2.32514
2.47675
2.63122
2.78496
2.93308
3.06939
3.18674
3.27832
3.33955
3.37012
3.37498
3.36283
3.3429
3.32281
3.30612
3.29869
3.60532
3.5676
3.49873
3.41605
3.29464
3.13882
2.95628
2.7575
2.55186
2.347
2.14849
1.96024
1.78489
1.62423
1.47944
1.35127
1.24023
1.14658
1.07044
1.01179
0.970491
0.946303
0.938863
0.947327
0.970897
1.00921
1.06182
1.12825
1.20795
1.30034
1.40479
1.52063
1.64717
1.78363
1.92914
2.08264
2.24277
2.40764
2.57453
2.7395
2.89701
3.03988
3.15982
3.24908
3.30318
3.32352
3.31808
3.29817
3.27488
3.25372
3.24375
3.36029
3.32088
3.24758
3.15798
3.02724
2.86086
2.66797
2.46017
2.24727
2.03682
1.8341
1.6427
1.46502
1.30267
1.15673
1.02791
0.916687
0.823346
0.748019
0.690705
0.651275
0.629467
0.62488
0.63666
0.664019
0.706554
0.763785
0.835167
0.920097
1.01793
1.12799
1.24956
1.38192
1.52429
1.67588
1.83577
2.00289
2.17583
2.35259
2.5302
2.70425
2.86838
3.0142
3.13213
3.21375
3.25549
3.26192
3.24481
3.21894
3.19271
3.1797
3.07811
3.03812
2.96203
2.86612
2.7265
2.55087
2.34997
2.13601
1.91875
1.70537
1.50074
1.30812
1.1297
0.966979
0.820992
0.692464
0.581901
0.489634
0.415842
0.360559
0.323673
0.304916
0.303834
0.319572
0.351361
0.398762
0.461239
0.538189
0.628938
0.732769
0.848928
0.97664
1.11512
1.26356
1.42115
1.58706
1.76034
1.93989
2.12422
2.31118
2.49745
2.67794
2.8452
2.98938
3.09954
3.16717
3.19124
3.181
3.15401
3.12232
3.10571
2.75301
2.71183
2.63268
2.53259
2.38811
2.20766
2.00286
1.78636
1.56778
1.35396
1.14944
0.957247
0.779438
0.617468
0.472392
0.344993
0.235851
0.145377
0.0738183
0.0212627
-0.0123742
-0.027371
-0.0242442
-0.00384283
0.0330979
0.0860928
0.154549
0.237787
0.335056
0.445552
0.568435
0.702845
0.847915
1.00278
1.1666
1.3385
1.51761
1.70299
1.89346
2.08745
2.28254
2.47492
2.65853
2.82446
2.9611
3.05639
3.1031
3.10479
3.07922
3.04196
3.02114
2.39488
2.35415
2.27443
2.17099
2.02187
1.83756
1.63067
1.41378
1.19606
0.98376
0.781007
0.590611
0.41455
0.254292
0.110964
-0.0145488
-0.121556
-0.209542
-0.278168
-0.327279
-0.356925
-0.367396
-0.359288
-0.333437
-0.290529
-0.231104
-0.155828
-0.0654638
0.0391425
0.157089
0.287435
0.429225
0.5815
0.743314
0.913744
1.09189
1.27686
1.46777
1.66362
1.86318
2.06471
2.26541
2.46068
2.64315
2.80197
2.92361
2.99577
3.01454
2.99404
2.95167
2.92612
1.99358
1.95199
1.87094
1.76722
1.61878
1.43601
1.23164
1.01808
0.803993
0.595285
0.395875
0.208511
0.0352028
-0.12249
-0.263314
-0.386238
-0.49043
-0.57524
-0.640221
-0.685135
-0.709994
-0.715103
-0.701156
-0.668967
-0.619163
-0.552352
-0.469285
-0.37083
-0.257941
-0.131637
0.0070325
0.157
0.317205
0.486609
0.664204
0.849022
1.04013
1.23663
1.43759
1.64199
1.84847
2.05502
2.25824
2.45237
2.62817
2.77239
2.86987
2.90963
2.89865
2.85239
2.8217
1.56531
1.52523
1.44605
1.34248
1.19429
1.01326
0.812186
0.602949
0.393626
0.189648
-0.00535109
-0.188731
-0.358451
-0.512836
-0.650469
-0.770146
-0.870859
-0.951805
-1.0124
-1.05232
-1.07153
-1.07035
-1.0496
-1.01006
-0.952295
-0.876994
-0.785018
-0.67736
-0.555106
-0.419404
-0.271434
-0.112381
0.0565858
0.234327
0.419751
0.611813
0.809524
1.01194
1.21814
1.42718
1.63793
1.84886
2.05747
2.25943
2.44726
2.60916
2.72925
2.79151
2.7944
2.7463
2.71018
1.09212
1.0512
0.972647
0.873647
0.732186
0.558847
0.366077
0.165156
-0.0364311
-0.233587
-0.422715
-0.601047
-0.766344
-0.916711
-1.05051
-1.16631
-1.26289
-1.33927
-1.39472
-1.42879
-1.44139
-1.43288
-1.40422
-1.35618
-1.28922
-1.20415
-1.10197
-0.983834
-0.850979
-0.704708
-0.54634
-0.377191
-0.198543
-0.0116293
0.182375
0.382359
0.587277
0.796142
1.00801
1.22194
1.43693
1.6517
1.86435
2.07161
2.26765
2.44249
2.58107
2.66483
2.68476
2.63748
2.59601
0.599478
0.561015
0.48652
0.391284
0.255333
0.0893808
-0.0951872
-0.287976
-0.481957
-0.672177
-0.855072
-1.02785
-1.18817
-1.33396
-1.46336
-1.57469
-1.6665
-1.7376
-1.78708
-1.81436
-1.8193
-1.80229
-1.76446
-1.70655
-1.62895
-1.53263
-1.41876
-1.28869
-1.14384
-0.985696
-0.815729
-0.635389
-0.446067
-0.249085
-0.0456806
0.162985
0.37583
0.591839
0.810048
1.02951
1.24926
1.46814
1.68461
1.89612
2.0981
2.28235
2.43536
2.53804
2.57637
2.53259
2.48654
0.0562247
0.0166707
-0.0546506
-0.13919
-0.26201
-0.414461
-0.585631
-0.765768
-0.948401
-1.12887
-1.30361
-1.46955
-1.62401
-1.76453
-1.88892
-1.99519
-2.08159
-2.14666
-2.18928
-2.20874
-2.20482
-2.17794
-2.12946
-2.0601
-1.97017
-1.86087
-1.7336
-1.58994
-1.43155
-1.2601
-1.07725
-0.884565
-0.683537
-0.47555
-0.261883
-0.0437104
0.177882
0.401884
0.627339
0.85331
1.07884
1.30285
1.52395
1.74006
1.94749
2.13952
2.30431
2.4234
2.47995
2.4422
2.39327
-0.496815
-0.533426
-0.599167
-0.676171
-0.787487
-0.926433
-1.08435
-1.2527
-1.42533
-1.59735
-1.76477
-1.92422
-2.0728
-2.20783
-2.32684
-2.42754
-2.50789
-2.56615
-2.60095
-2.6114
-2.59723
-2.55891
-2.49803
-2.41533
-2.31108
-2.18677
-2.04414
-1.88505
-1.71143
-1.52517
-1.3281
-1.12189
-0.908108
-0.688167
-0.463336
-0.234763
-0.00348766
0.22953
0.463382
0.697176
0.929991
1.1608
1.38831
1.61071
1.82491
2.0253
2.20155
2.33629
2.41087
2.38209
2.33305
-1.11315
-1.15083
-1.20903
-1.26714
-1.35844
-1.47832
-1.61818
-1.76991
-1.92774
-2.08701
-2.24377
-2.39444
-2.53563
-2.66416
-2.77702
-2.87148
-2.94505
-2.9956
-3.02146
-3.02154
-2.99548
-2.94386
-2.8685
-2.77016
-2.64921
-2.50756
-2.34734
-2.17081
-1.98017
-1.77755
-1.56491
-1.34402
-1.11645
-0.883586
-0.64663
-0.406643
-0.164566
0.0787435
0.322475
0.565827
0.807954
1.0479
1.2845
1.51609
1.74004
1.9516
2.14175
2.29434
2.38888
2.37403
2.32902
-1.72466
-1.76043
-1.81279
-1.85838
-1.93068
-2.03003
-2.15087
-2.28638
-2.43119
-2.58037
-2.72922
-2.87325
-3.00842
-3.13114
-3.23807
-3.32607
-3.39228
-3.4342
-3.44983
-3.43786
-3.3979
-3.3308
-3.23847
-3.12167
-2.98118
-2.81949
-2.63925
-2.44313
-2.23366
-2.01315
-1.78366
-1.54696
-1.30455
-1.05771
-0.807498
-0.554825
-0.300478
-0.0451649
0.210444
0.465674
0.719805
0.971999
1.22121
1.46601
1.70415
1.93167
2.14079
2.31689
2.43726
2.44546
2.41072
-2.42414
-2.45852
-2.49417
-2.50998
-2.55525
-2.63041
-2.72907
-2.8445
-2.97125
-3.10444
-3.23951
-3.37202
-3.49763
-3.6121
-3.71131
-3.79146
-3.84903
-3.88093
-3.88464
-3.85851
-3.80212
-3.71702
-3.60468
-3.46576
-3.30233
-3.11756
-2.91469
-2.69683
-2.46677
-2.22695
-1.97937
-1.72569
-1.46724
-1.20508
-0.940053
-0.672861
-0.404096
-0.134289
0.136048
0.406389
0.676154
0.94466
1.21105
1.47415
1.73218
1.98201
2.21732
2.42557
2.58221
2.62846
2.61338
-3.09185
-3.12951
-3.16115
-3.15587
-3.17264
-3.21967
-3.29327
-3.38728
-3.49641
-3.616
-3.74132
-3.867
-3.98729
-4.09667
-4.19025
-4.26359
-4.31257
-4.33352
-4.32351
-4.28062
-4.20458
-4.09775
-3.96129
-3.79611
-3.60599
-3.39495
-3.16689
-2.92529
-2.67305
-2.41251
-2.14549
-1.87333
-1.59707
-1.31745
-1.03506
-0.75037
-0.46376
-0.175602
0.113736
0.403857
0.694312
0.984573
1.27399
1.56171
1.84649
2.1262
2.39628
2.64725
2.85421
2.95978
2.97754
-3.89483
-3.9191
-3.91343
-3.86641
-3.85073
-3.87009
-3.91935
-3.99195
-4.08157
-4.18272
-4.29054
-4.40023
-4.50662
-4.60402
-4.68652
-4.74843
-4.78469
-4.79085
-4.76325
-4.69951
-4.59933
-4.46548
-4.29956
-4.10357
-3.88285
-3.64249
-3.38696
-3.11982
-2.84376
-2.56073
-2.27209
-1.97875
-1.68135
-1.38031
-1.07596
-0.768569
-0.458393
-0.145694
0.16924
0.486083
0.804468
1.12398
1.44416
1.76447
2.08422
2.40242
2.71654
3.02128
3.29394
3.48484
3.55226
-4.61478
-4.6528
-4.64517
-4.56218
-4.50764
-4.49264
-4.51276
-4.56038
-4.6281
-4.71007
-4.80191
-4.89973
-4.99836
-5.09048
-5.16785
-5.22302
-5.2496
-5.24184
-5.19504
-5.10657
-4.97687
-4.80935
-4.60716
-4.37503
-4.11999
-3.84776
-3.56266
-3.26773
-2.96495
-2.65559
-2.34041
-2.0199
-1.69434
-1.36399
-1.02905
-0.689739
-0.346292
0.00101551
0.351877
0.705957
1.0629
1.42233
1.7839
2.14732
2.51239
2.87912
3.24699
3.61567
3.96759
4.27113
4.40737
-5.55243
-5.5389
-5.45101
-5.32135
-5.23415
-5.19253
-5.19147
-5.22254
-5.27675
-5.34587
-5.42269
-5.50154
-5.57811
-5.64774
-5.70367
-5.737
-5.73839
-5.69996
-5.61675
-5.48751
-5.31555
-5.10521
-4.86115
-4.59032
-4.2992
-3.99252
-3.6735
-3.34417
-3.00578
-2.65912
-2.30471
-1.94294
-1.57417
-1.19873
-0.816964
-0.429233
-0.0359201