# vtk DataFile Version 2.0

ASCII
DATASET STRUCTURED_GRID
DIMENSIONS 51 51 1
POINTS 2601 float
0 0 0
0.02 0 0
0.04 0 0
0.06 0 0
0.08 0 0
0.1 0 0
0.12 0 0
0.14 0 0
0.16 0 0
0.18 0 0
0.2 0 0
0.22 0 0
0.24 0 0
0.26 0 0
0.28 0 0
0.3 0 0
0.32 0 0
0.34 0 0
0.36 0 0
0.38 0 0
0.4 0 0
0.42 0 0
0.44 0 0
0.46 0 0
0.48 0 0
0.5 0 0
0.52 0 0
0.54 0 0
0.56 0 0
0.58 0 0
0.6 0 0
0.62 0 0
0.64 0 0
0.66 0 0
0.68 0 0
0.7 0 0
0.72 0 0
0.74 0 0
0.76 0 0
0.78 0 0
0.8 0 0
0.82 0 0
0.84 0 0
0.86 0 0
0.88 0 0
0.9 0 0
0.92 0 0
0.94 0 0
0.96 0 0
0.98 0 0
1 0 0
0 0.02 0
0.02 0.02 0
0.04 0.02 0
0.06 0.02 0
0.08 0.02 0
0.1 0.02 0
0.12 0.02 0
0.14 0.02 0
0.16 0.02 0
0.18 0.02 0
0.2 0.02 0
0.22 0.02 0
0.24 0.02 0
0.26 0.02 0
0.28 0.02 0
0.3 0.02 0
0.32 0.02 0
0.34 0.02 0
0.36 0.02 0
0.38 0.02 0
0.4 0.02 0
0.42 0.02 0
0.44 0.02 0
0.46 0.02 0
0.48 0.02 0
0.5 0.02 0
0.52 0.02 0
0.54 0.02 0
0.56 0.02 0
0.58 0.02 0
0.6 0.02 0
0.62 0.02 0
0.64 0.02 0
0.66 0.02 0
0.68 0.02 0
0.7 0.02 0
0.72 0.02 0
0.74 0.02 0
0.76 0.02 0
0.78 0.02 0
0.8 0.02 0
0.82 0.02 0
0.84 0.02 0
0.86 0.02 0
0.88 0.02 0
0.9 0.02 0
0.92 0.02 0
0.94 0.02 0
0.96 0.02 0
0.98 0.02 0
1 0.02 0
0 0.04 0
0.02 0.04 0
0.04 0.04 0
0.06 0.04 0
0.08 0.04 0
0.1 0.04 0
0.12 0.04 0
0.14 0.04 0
0.16 0.04 0
0.18 0.04 0
0.2 0.04 0
0.22 0.04 0
0.24 0.04 0
0.26 0.04 0
0.28 0.04 0
0.3 0.04 0
0.32 0.04 0
0.34 0.04 0
0.36 0.04 0
0.38 0.04 0
0.4 0.04 0
0.42 0.04 0
0.44 0.04 0
0.46 0.04 0
0.48 0.04 0
0.5 0.04 0
0.52 0.04 0
0.54 0.04 0
0.56 0.04 0
0.58 0.04 0
0.6 0.04 0
0.62 0.04 0
0.64 0.04 0
0.66 0.04 0
0.68 0.04 0
0.7 0.04 0
0.72 0.04 0
0.74 0.04 0
0.76 0.04 0
0.78 0.04 0
0.8 0.04 0
0.82 0.04 0
0.84 0.04 0
0.86 0.04 0
0.88 0.04 0
0.9 0.04 0
0.92 0.04 0
0.94 0.04 0
0.96 0.04 0
0.98 0.04 0
1 0.04 0
0 0.06 0
0.02 0.06 0
0.04 0.06 0
0.06 0.06 0
0.08 0.06 0
0.1 0.06 0
0.12 0.06 0
0.14 0.06 0
0.16 0.06 0
0.18 0.06 0
0.2 0.06 0
0.22 0.06 0
0.24 0.06 0
0.26 0.06 0
0.28 0.06 0
0.3 0.06 0
0.32 0.06 0
0.34 0.06 0
0.36 0.06 0
0.38 0.06 0
0.4 0.06 0
0.42 0.06 0
0.44 0.06 0
0.46 0.06 0
0.48 0.06 0
0.5 0.06 0
0.52 0.06 0
0.54 0.06 0
0.56 0.06 0
0.58 0.06 0
0.6 0.06 0
0.62 0.06 0
0.64 0.06 0
0.66 0.06 0
0.68 0.06 0
0.7 0.06 0
0.72 0.06 0
0.74 0.06 0
0.76 0.06 0
0.78 0.06 0
0.8 0.06 0
0.82 0.06 0
0.84 0.06 0
0.86 0.06 0
0.88 0.06 0
0.9 0.06 0
0.92 0.06 0
0.94 0.06 0
0.96 0.06 0
0.98 0.06 0
1 0.06 0
0 0.08 0
0.02 0.08 0
0.04 0.08 0
0.06 0.08 0
0.08 0.08 0
0.1 0.08 0
0.12 0.08 0
0.14 0.08 0
0.16 0.08 0
0.18 0.08 0
0.2 0.08 0
0.22 0.08 0
0.24 0.08 0
0.26 0.08 0
0.28 0.08 0
0.3 0.08 0
0.32 0.08 0
0.34 0.08 0
0.36 0.08 0
0.38 0.08 0
0.4 0.08 0
0.42 0.08 0
0.44 0.08 0
0.46 0.08 0
0.48 0.08 0
0.5 0.08 0
0.52 0.08 0
0.54 0.08 0
0.56 0.08 0
0.58 0.08 0
0.6 0.08 0
0.62 0.08 0
0.64 0.08 0
0.66 0.08 0
0.68 0.08 0
0.7 0.08 0
0.72 0.08 0
0.74 0.08 0
0.76 0.08 0
0.78 0.08 0
0.8 0.08 0
0.82 0.08 0
0.84 0.08 0
0.86 0.08 0
0.88 0.08 0
0.9 0.08 0
0.92 0.08 0
0.94 0.08 0
0.96 0.08 0
0.98 0.08 0
1 0.08 0
0 0.1 0
0.02 0.1 0
0.04 0.1 0
0.06 0.1 0
0.08 0.1 0
0.1 0.1 0
0.12 0.1 0
0.14 0.1 0
0.16 0.1 0
0.18 0.1 0
0.2 0.1 0
0.22 0.1 0
0.24 0.1 0
0.26 0.1 0
0.28 0.1 0
0.3 0.1 0
0.32 0.1 0
0.34 0.1 0
0.36 0.1 0
0.38 0.1 0
0.4 0.1 0
0.42 0.1 0
0.44 0.1 0
0.46 0.1 0
0.48 0.1 0
0.5 0.1 0
0.52 0.1 0
0.54 0.1 0
0.56 0.1 0
0.58 0.1 0
0.6 0.1 0
0.62 0.1 0
0.64 0.1 0
0.66 0.1 0
0.68 0.1 0
0.7 0.1 0
0.72 0.1 0
0.74 0.1 0
0.76 0.1 0
0.78 0.1 0
0.8 0.1 0
0.82 0.1 0
0.84 0.1 0
0.86 0.1 0
0.88 0.1 0
0.9 0.1 0
0.92 0.1 0
0.94 0.1 0
0.96 0.1 0
0.98 0.1 0
1 0.1 0
0 0.12 0
0.02 0.12 0
0.04 0.12 0
0.06 0.12 0
0.08 0.12 0
0.1 0.12 0
0.12 0.12 0
0.14 0.12 0
0.16 0.12 0
0.18 0.12 0
0.2 0.12 0
0.22 0.12 0
0.24 0.12 0
0.26 0.12 0
0.28 0.12 0
0.3 0.12 0
0.32 0.12 0
0.34 0.12 0
0.36 0.12 0
0.38 0.12 0
0.4 0.12 0
0.42 0.12 0
0.44 0.12 0
0.46 0.12 0
0.48 0.12 0
0.5 0.12 0
0.52 0.12 0
0.54 0.12 0
0.56 0.12 0
0.58 0.12 0
0.6 0.12 0
0.62 0.12 0
0.64 0.12 0
0.66 0.12 0
0.68 0.12 0
0.7 0.12 0
0.72 0.12 0
0.74 0.12 0
0.76 0.12 0
0.78 0.12 0
0.8 0.12 0
0.82 0.12 0
0.84 0.12 0
0.86 0.12 0
0.88 0.12 0
0.9 0.12 0
0.92 0.12 0
0.94 0.12 0
0.96 0.12 0
0.98 0.12 0
1 0.12 0
0 0.14 0
0.02 0.14 0
0.04 0.14 0
0.06 0.14 0
0.08 0.14 0
0.1 0.14 0
0.12 0.14 0
0.14 0.14 0
0.16 0.14 0
0.18 0.14 0
0.2 0.14 0
0.22 0.14 0
0.24 0.14 0
0.26 0.14 0
0.28 0.14 0
0.3 0.14 0
0.32 0.14 0
0.34 0.14 0
0.36 0.14 0
0.38 0.14 0
0.4 0.14 0
0.42 0.14 0
0.44 0.14 0
0.46 0.14 0
0.48 0.14 0
0.5 0.14 0
0.52 0.14 0
0.54 0.14 0
0.56 0.14 0
0.58 0.14 0
0.6 0.14 0
0.62 0.14 0
0.64 0.14 0
0.66 0.14 0
0.68 0.14 0
0.7 0.14 0
0.72 0.14 0
0.74 0.14 0
0.76 0.14 0
0.78 0.14 0
0.8 0.14 0
0.82 0.14 0
0.84 0.14 0
0.86 0.14 0
0.88 0.14 0
0.9 0.14 0
0.92 0.14 0
0.94 0.14 0
0.96 0.14 0
0.98 0.14 0
1 0.14 0
0 0.16 0
0.02 0.16 0
0.04 0.16 0
0.06 0.16 0
0.08 0.16 0
0.1 0.16 0
0.12 0.16 0
0.14 0.16 0
0.16 0.16 0
0.18 0.16 0
0.2 0.16 0
0.22 0.16 0
0.24 0.16 0
0.26 0.16 0
0.28 0.16 0
0.3 0.16 0
0.32 0.16 0
0.34 0.16 0
0.36 0.16 0
0.38 0.16 0
0.4 0.16 0
0.42 0.16 0
0.44 0.16 0
0.46 0.16 0
0.48 0.16 0
0.5 0.16 0
0.52 0.16 0
0.54 0.16 0
0.56 0.16 0
0.58 0.16 0
0.6 0.16 0
0.62 0.16 0
0.64 0.16 0
0.66 0.16 0
0.68 0.16 0
0.7 0.16 0
0.72 0.16 0
0.74 0.16 0
0.76 0.16 0
0.78 0.16 0
0.8 0.16 0
0.82 0.16 0
0.84 0.16 0
0.86 0.16 0
0.88 0.16 0
0.9 0.16 0
0.92 0.16 0
0.94 0.16 0
0.96 0.16 0
0.98 0.16 0
1 0.16 0
0 0.18 0
0.02 0.18 0
0.04 0.18 0
0.06 0.18 0
0.08 0.18 0
0.1 0.18 0
0.12 0.18 0
0.14 0.18 0
0.16 0.18 0
0.18 0.18 0
0.2 0.18 0
0.22 0.18 0
0.24 0.18 0
0.26 0.18 0
0.28 0.18 0
0.3 0.18 0
0.32 0.18 0
0.34 0.18 0
0.36 0.18 0
0.38 0.18 0
0.4 0.18 0
0.42 0.18 0
0.44 0.18 0
0.46 0.18 0
0.48 0.18 0
0.5 0.18 0
0.52 0.18 0
0.54 0.18 0
0.56 0.18 0
0.58 0.18 0
0.6 0.18 0
0.62 0.18 0
0.64 0.18 0
0.66 0.18 0
0.68 0.18 0
0.7 0.18 0
0.72 0.18 0
0.74 0.18 0
0.76 0.18 0
0.78 0.18 0
0.8 0.18 0
0.82 0.18 0
0.84 0.18 0
0.86 0.18 0
0.88 0.18 0
0.9 0.18 0
0.92 0.18 0
0.94 0.18 0
0.96 0.18 0
0.98 0.18 0
1 0.18 0
0 0.2 0
0.02 0.2 0
0.04 0.2 0
0.06 0.2 0
0.08 0.2 0
0.1 0.2 0
0.12 0.2 0
0.14 0.2 0
0.16 0.2 0
0.18 0.2 0
0.2 0.2 0
0.22 0.2 0
0.24 0.2 0
0.26 0.2 0
0.28 0.2 0
0.3 0.2 0
0.32 0.2 0
0.34 0.2 0
0.36 0.2 0
0.38 0.2 0
0.4 0.2 0
0.42 0.2 0
0.44 0.2 0
0.46 0.2 0
0.48 0.2 0
0.5 0.2 0
0.52 0.2 0
0.54 0.2 0
0.56 0.2 0
0.58 0.2 0
0.6 0.2 0
0.62 0.2 0
0.64 0.2 0
0.66 0.2 0
0.68 0.2 0
0.7 0.2 0
0.72 0.2 0
0.74 0.2 0
0.76 0.2 0
0.78 0.2 0
0.8 0.2 0
0.82 0.2 0
0.84 0.2 0
0.86 0.2 0
0.88 0.2 0
0.9 0.2 0
0.92 0.2 0
0.94 0.2 0
0.96 0.2 0
0.98 0.2 0
1 0.2 0
0 0.22 0
0.02 0.22 0
0.04 0.22 0
0.06 0.22 0
0.08 0.22 0
0.1 0.22 0
0.12 0.22 0
0.14 0.22 0
0.16 0.22 0
0.18 0.22 0
0.2 0.22 0
0.22 0.22 0
0.24 0.22 0
0.26 0.22 0
0.28 0.22 0
0.3 0.22 0
0.32 0.22 0
0.34 0.22 0
0.36 0.22 0
0.38 0.22 0
0.4 0.22 0
0.42 0.22 0
0.44 0.22 0
0.46 0.22 0
0.48 0.22 0
0.5 0.22 0
0.52 0.22 0
0.54 0.22 0
0.56 0.22 0
0.58 0.22 0
0.6 0.22 0
0.62 0.22 0
0.64 0.22 0
0.66 0.22 0
0.68 0.22 0
0.7 0.22 0
0.72 0.22 0
0.74 0.22 0
0.76 0.22 0
0.78 0.22 0
0.8 0.22 0
0.82 0.22 0
0.84 0.22 0
0.86 0.22 0
0.88 0.22 0
0.9 0.22 0
0.92 0.22 0
0.94 0.22 0
0.96 0.22 0
0.98 0.22 0
1 0.22 0
0 0.24 0
0.02 0.24 0
0.04 0.24 0
0.06 0.24 0
0.08 0.24 0
0.1 0.24 0
0.12 0.24 0
0.14 0.24 0
0.16 0.24 0
0.18 0.24 0
0.2 0.24 0
0.22 0.24 0
0.24 0.24 0
0.26 0.24 0
0.28 0.24 0
0.3 0.24 0
0.32 0.24 0
0.34 0.24 0
0.36 0.24 0
0.38 0.24 0
0.4 0.24 0
0.42 0.24 0
0.44 0.24 0
0.46 0.24 0
0.48 0.24 0
0.5 0.24 0
0.52 0.24 0
0.54 0.24 0
0.56 0.24 0
0.58 0.24 0
0.6 0.24 0
0.62 0.24 0
0.64 0.24 0
0.66 0.24 0
0.68 0.24 0
0.7 0.24 0
0.72 0.24 0
0.74 0.24 0
0.76 0.24 0
0.78 0.24 0
0.8 0.24 0
0.82 0.24 0
0.84 0.24 0
0.86 0.24 0
0.88 0.24 0
0.9 0.24 0
0.92 0.24 0
0.94 0.24 0
0.96 0.24 0
0.98 0.24 0
1 0.24 0
0 0.26 0
0.02 0.26 0
0.04 0.26 0
0.06 0.26 0
0.08 0.26 0
0.1 0.26 0
0.12 0.26 0
0.14 0.26 0
0.16 0.26 0
0.18 0.26 0
0.2 0.26 0
0.22 0.26 0
0.24 0.26 0
0.26 0.26 0
0.28 0.26 0
0.3 0.26 0
0.32 0.26 0
0.34 0.26 0
0.36 0.26 0
0.38 0.26 0
0.4 0.26 0
0.42 0.26 0
0.44 0.26 0
0.46 0.26 0
0.48 0.26 0
0.5 0.26 0
0.52 0.26 0
0.54 0.26 0
0.56 0.26 0
0.58 0.26 0
0.6 0.26 0
0.62 0.26 0
0.64 0.26 0
0.66 0.26 0
0.68 0.26 0
0.7 0.26 0
0.72 0.26 0
0.74 0.26 0
0.76 0.26 0
0.78 0.26 0
0.8 0.26 0
0.82 0.26 0
0.84 0.26 0
0.86 0.26 0
0.88 0.26 0
0.9 0.26 0
0.92 0.26 0
0.94 0.26 0
0.96 0.26 0
0.98 0.26 0
1 0.26 0
0 0.28 0
0.02 0.28 0
0.04 0.28 0
0.06 0.28 0
0.08 0.28 0
0.1 0.28 0
0.12 0.28 0
0.14 0.28 0
0.16 0.28 0
0.18 0.28 0
0.2 0.28 0
0.22 0.28 0
0.24 0.28 0
0.26 0.28 0
0.28 0.28 0
0.3 0.28 0
0.32 0.28 0
0.34 0.28 0
0.36 0.28 0
0.38 0.28 0
0.4 0.28 0
0.42 0.28 0
0.44 0.28 0
0.46 0.28 0
0.48 0.28 0
0.5 0.28 0
0.52 0.28 0
0.54 0.28 0
0.56 0.28 0
0.58 0.28 0
0.6 0.28 0
0.62 0.28 0
0.64 0.28 0
0.66 0.28 0
0.68 0.28 0
0.7 0.28 0
0.72 0.28 0
0.74 0.28 0
0.76 0.28 0
0.78 0.28 0
0.8 0.28 0
0.82 0.28 0
0.84 0.28 0
0.86 0.28 0
0.88 0.28 0
0.9 0.28 0
0.92 0.28 0
0.94 0.28 0
0.96 0.28 0
0.98 0.28 0
1 0.28 0
0 0.3 0
0.02 0.3 0
0.04 0.3 0
0.06 0.3 0
0.08 0.3 0
0.1 0.3 0
0.12 0.3 0
0.14 0.3 0
0.16 0.3 0
0.18 0.3 0
0.2 0.3 0
0.22 0.3 0
0.24 0.3 0
0.26 0.3 0
0.28 0.3 0
0.3 0.3 0
0.32 0.3 0
0.34 0.3 0
0.36 0.3 0
0.38 0.3 0
0.4 0.3 0
0.42 0.3 0
0.44 0.3 0
0.46 0.3 0
0.48 0.3 0
0.5 0.3 0
0.52 0.3 0
0.54 0.3 0
0.56 0.3 0
0.58 0.3 0
0.6 0.3 0
0.62 0.3 0
0.64 0.3 0
0.66 0.3 0
0.68 0.3 0
0.7 0.3 0
0.72 0.3 0
0.74 0.3 0
0.76 0.3 0
0.78 0.3 0
0.8 0.3 0
0.82 0.3 0
0.84 0.3 0
0.86 0.3 0
0.88 0.3 0
0.9 0.3 0
0.92 0.3 0
0.94 0.3 0
0.96 0.3 0
0.98 0.3 0
1 0.3 0
0 0.32 0
0.02 0.32 0
0.04 0.32 0
0.06 0.32 0
0.08 0.32 0
0.1 0.32 0
0.12 0.32 0
0.14 0.32 0
0.16 0.32 0
0.18 0.32 0
0.2 0.32 0
0.22 0.32 0
0.24 0.32 0
0.26 0.32 0
0.28 0.32 0
0.3 0.32 0
0.32 0.32 0
0.34 0.32 0
0.36 0.32 0
0.38 0.32 0
0.4 0.32 0
0.42 0.32 0
0.44 0.32 0
0.46 0.32 0
0.48 0.32 0
0.5 0.32 0
0.52 0.32 0
0.54 0.32 0
0.56 0.32 0
0.58 0.32 0
0.6 0.32 0
0.62 0.32 0
0.64 0.32 0
0.66 0.32 0
0.68 0.32 0
0.7 0.32 0
0.72 0.32 0
0.74 0.32 0
0.76 0.32 0
0.78 0.32 0
0.8 0.32 0
0.82 0.32 0
0.84 0.32 0
0.86 0.32 0
0.88 0.32 0
0.9 0.32 0
0.92 0.32 0
0.94 0.32 0
0.96 0.32 0
0.98 0.32 0
1 0.32 0
0 0.34 0
0.02 0.34 0
0.04 0.34 0
0.06 0.34 0
0.08 0.34 0
[...]
POINT_DATA 2601
SCALARS pressure float 1
LOOKUP_TABLE default
3.14413e-05
3.14569e-05
3.14737e-05
3.14841e-05
3.14829e-05
3.14675e-05
3.14369e-05
3.13916e-05
3.13334e-05
3.12641e-05
3.11862e-05
3.11018e-05
3.10131e-05
3.09216e-05
3.08287e-05
3.07354e-05
3.06422e-05
3.05495e-05
3.04577e-05
3.03667e-05
3.02766e-05
3.01876e-05
3.00997e-05
3.00131e-05
2.99281e-05
2.98451e-05
2.97644e-05
2.96864e-05
2.96117e-05
2.95408e-05
2.9474e-05
2.94117e-05
2.93543e-05
2.9302e-05
2.92549e-05
2.92132e-05
2.91768e-05
2.91457e-05
2.91196e-05
2.90985e-05
2.90822e-05
2.90705e-05
2.90633e-05
2.90605e-05
2.90619e-05
2.90672e-05
2.90757e-05
2.90862e-05
2.90967e-05
2.9104e-05
2.9104e-05
3.14258e-05
3.14413e-05
3.14545e-05
3.14605e-05
3.14558e-05
3.14381e-05
3.14068e-05
3.13623e-05
3.13058e-05
3.1239e-05
3.11641e-05
3.10829e-05
3.09973e-05
3.09087e-05
3.08184e-05
3.07273e-05
3.06359e-05
3.05449e-05
3.04543e-05
3.03643e-05
3.02752e-05
3.01871e-05
3.01001e-05
3.00145e-05
2.99305e-05
2.98486e-05
2.97692e-05
2.96926e-05
2.96194e-05
2.95499e-05
2.94846e-05
2.94238e-05
2.93678e-05
2.93168e-05
2.9271e-05
2.92304e-05
2.91949e-05
2.91645e-05
2.91389e-05
2.9118e-05
2.91017e-05
2.90897e-05
2.90818e-05
2.90778e-05
2.90777e-05
2.90809e-05
2.9087e-05
2.90951e-05
2.91038e-05
2.91112e-05
2.91112e-05
3.14085e-05
3.1428e-05
3.14414e-05
3.14459e-05
3.14391e-05
3.14197e-05
3.13872e-05
3.13421e-05
3.12857e-05
3.12198e-05
3.11462e-05
3.10666e-05
3.09829e-05
3.08963e-05
3.08079e-05
3.07186e-05
3.06289e-05
3.05392e-05
3.04498e-05
3.03608e-05
3.02725e-05
3.01851e-05
3.00987e-05
3.00137e-05
2.99304e-05
2.98492e-05
2.97705e-05
2.96948e-05
2.96225e-05
2.9554e-05
2.94898e-05
2.94302e-05
2.93754e-05
2.93257e-05
2.9281e-05
2.92415e-05
2.9207e-05
2.91775e-05
2.91526e-05
2.91322e-05
2.9116e-05
2.91039e-05
2.90956e-05
2.90909e-05
2.90897e-05
2.90916e-05
2.90963e-05
2.91034e-05
2.91122e-05
2.91216e-05
2.91216e-05
3.13961e-05
3.14204e-05
3.14355e-05
3.14396e-05
3.14313e-05
3.14098e-05
3.13753e-05
3.13284e-05
3.12708e-05
3.12042e-05
3.11306e-05
3.10516e-05
3.09689e-05
3.08836e-05
3.07968e-05
3.0709e-05
3.06208e-05
3.05324e-05
3.04441e-05
3.03561e-05
3.02685e-05
3.01815e-05
3.00954e-05
3.00106e-05
2.99275e-05
2.98464e-05
2.97679e-05
2.96925e-05
2.96206e-05
2.95527e-05
2.94891e-05
2.94303e-05
2.93765e-05
2.93278e-05
2.92842e-05
2.92458e-05
2.92124e-05
2.91839e-05
2.91599e-05
2.91402e-05
2.91246e-05
2.91127e-05
2.91043e-05
2.90993e-05
2.90974e-05
2.90987e-05
2.91029e-05
2.91099e-05
2.91197e-05
2.91319e-05
2.91319e-05
3.13928e-05
3.14213e-05
3.14379e-05
3.14415e-05
3.14313e-05
3.1407e-05
3.13692e-05
3.13194e-05
3.12592e-05
3.11908e-05
3.11161e-05
3.1037e-05
3.09547e-05
3.08704e-05
3.07849e-05
3.06986e-05
3.06118e-05
3.05248e-05
3.04376e-05
3.03503e-05
3.02632e-05
3.01764e-05
3.00903e-05
3.00053e-05
2.99217e-05
2.98402e-05
2.97613e-05
2.96855e-05
2.96134e-05
2.95455e-05
2.94821e-05
2.94237e-05
2.93705e-05
2.93226e-05
2.928e-05
2.92426e-05
2.92104e-05
2.9183e-05
2.91601e-05
2.91414e-05
2.91266e-05
2.91153e-05
2.91072e-05
2.91023e-05
2.91004e-05
2.91014e-05
2.91056e-05
2.91131e-05
2.91242e-05
2.91393e-05
2.91393e-05
3.14011e-05
3.14326e-05
3.14499e-05
3.1452e-05
3.14387e-05
3.14104e-05
3.13681e-05
3.1314e-05
3.12502e-05
3.1179e-05
3.11025e-05
3.10226e-05
3.09404e-05
3.08569e-05
3.07726e-05
3.06878e-05
3.06025e-05
3.05168e-05
3.04307e-05
3.03441e-05
3.02572e-05
3.01703e-05
3.00838e-05
2.9998e-05
2.99135e-05
2.9831e-05
2.9751e-05
2.96742e-05
2.96012e-05
2.95326e-05
2.94688e-05
2.94103e-05
2.93573e-05
2.93098e-05
2.9268e-05
2.92316e-05
2.92005e-05
2.91743e-05
2.91526e-05
2.91352e-05
2.91214e-05
2.9111e-05
2.91037e-05
2.90993e-05
2.90977e-05
2.9099e-05
2.91035e-05
2.91117e-05
2.91242e-05
2.91418e-05
2.91418e-05
3.14231e-05
3.14561e-05
3.14725e-05
3.14718e-05
3.14541e-05
3.14202e-05
3.13722e-05
3.13125e-05
3.1244e-05
3.11693e-05
3.10905e-05
3.10094e-05
3.09271e-05
3.08442e-05
3.07612e-05
3.06778e-05
3.0594e-05
3.05096e-05
3.04244e-05
3.03383e-05
3.02515e-05
3.01641e-05
3.00766e-05
2.99896e-05
2.99036e-05
2.98193e-05
2.97376e-05
2.96591e-05
2.95845e-05
2.95146e-05
2.94498e-05
2.93906e-05
2.93372e-05
2.92898e-05
2.92484e-05
2.92128e-05
2.91826e-05
2.91576e-05
2.91373e-05
2.91212e-05
2.91088e-05
2.90996e-05
2.90933e-05
2.90897e-05
2.90888e-05
2.90906e-05
2.90957e-05
2.91046e-05
2.91182e-05
2.91378e-05
2.91378e-05
3.14607e-05
3.14935e-05
3.15075e-05
3.15022e-05
3.14784e-05
3.14375e-05
3.13824e-05
3.13163e-05
3.12423e-05
3.11633e-05
3.10818e-05
3.09992e-05
3.09166e-05
3.08343e-05
3.07523e-05
3.06702e-05
3.05878e-05
3.05044e-05
3.04199e-05
3.03341e-05
3.02469e-05
3.01587e-05
3.00699e-05
2.9981e-05
2.98929e-05
2.98064e-05
2.97222e-05
2.96413e-05
2.95646e-05
2.94927e-05
2.94262e-05
2.93657e-05
2.93114e-05
2.92636e-05
2.92221e-05
2.91868e-05
2.91575e-05
2.91335e-05
2.91145e-05
2.90997e-05
2.90887e-05
2.90809e-05
2.90758e-05
2.90733e-05
2.90732e-05
2.90757e-05
2.90814e-05
2.90909e-05
2.91054e-05
2.91263e-05
2.91263e-05
3.15161e-05
3.15468e-05
3.15565e-05
3.15449e-05
3.15134e-05
3.14642e-05
3.14009e-05
3.13273e-05
3.12471e-05
3.11635e-05
3.10788e-05
3.09944e-05
3.09112e-05
3.08291e-05
3.07478e-05
3.06668e-05
3.05853e-05
3.05027e-05
3.04184e-05
3.03324e-05
3.02445e-05
3.0155e-05
3.00644e-05
2.99733e-05
2.98826e-05
2.97932e-05
2.97061e-05
2.96223e-05
2.95428e-05
2.94682e-05
2.93995e-05
2.9337e-05
2.92813e-05
2.92324e-05
2.91904e-05
2.91551e-05
2.9126e-05
2.91028e-05
2.90848e-05
2.90712e-05
2.90616e-05
2.90551e-05
2.90513e-05
2.90499e-05
2.90508e-05
2.90541e-05
2.90603e-05
2.90703e-05
2.90853e-05
2.91067e-05
2.91067e-05
3.15914e-05
3.16182e-05
3.16216e-05
3.16021e-05
3.15613e-05
3.15025e-05
3.143e-05
3.13483e-05
3.12614e-05
3.11726e-05
3.10842e-05
3.09976e-05
3.09132e-05
3.08307e-05
3.07495e-05
3.06688e-05
3.05875e-05
3.0505e-05
3.04205e-05
3.03337e-05
3.02445e-05
3.01533e-05
3.00605e-05
2.99668e-05
2.98732e-05
2.97807e-05
2.96904e-05
2.96033e-05
2.95205e-05
2.9443e-05
2.93714e-05
2.93065e-05
2.92487e-05
2.91982e-05
2.91551e-05
2.91191e-05
2.90899e-05
2.90669e-05
2.90495e-05
2.90369e-05
2.90282e-05
2.90229e-05
2.90203e-05
2.90199e-05
2.90216e-05
2.90255e-05
2.90321e-05
2.90424e-05
2.90574e-05
2.90789e-05
2.90789e-05
3.16894e-05
3.171e-05
3.17052e-05
3.1676e-05
3.16246e-05
3.15552e-05
3.14727e-05
3.13822e-05
3.12879e-05
3.11933e-05
3.11006e-05
3.10109e-05
3.09243e-05
3.08402e-05
3.07579e-05
3.06764e-05
3.05943e-05
3.05108e-05
3.04252e-05
3.0337e-05
3.02461e-05
3.01529e-05
3.00577e-05
2.99614e-05
2.98649e-05
2.97691e-05
2.96755e-05
2.95851e-05
2.9499e-05
2.94182e-05
2.93437e-05
2.9276e-05
2.92157e-05
2.91631e-05
2.91183e-05
2.90811e-05
2.90511e-05
2.90277e-05
2.90103e-05
2.8998e-05
2.89899e-05
2.89853e-05
2.89835e-05
2.89838e-05
2.89861e-05
2.89904e-05
2.89972e-05
2.90073e-05
2.9022e-05
2.90429e-05
2.90429e-05
3.18121e-05
3.1824e-05
3.18092e-05
3.17688e-05
3.17058e-05
3.16249e-05
3.15316e-05
3.14314e-05
3.13288e-05
3.12272e-05
3.1129e-05
3.10347e-05
3.09444e-05
3.08573e-05
3.07722e-05
3.06881e-05
3.06036e-05
3.05178e-05
3.04299e-05
3.03394e-05
3.02462e-05
3.01506e-05
3.0053e-05
2.99542e-05
2.98553e-05
2.97571e-05
2.96608e-05
2.95677e-05
2.94788e-05
2.93951e-05
2.93175e-05
2.9247e-05
2.91841e-05
2.91291e-05
2.90821e-05
2.90431e-05
2.90116e-05
2.89872e-05
2.8969e-05
2.89563e-05
2.89482e-05
2.89436e-05
2.8942e-05
2.89425e-05
2.89449e-05
2.89491e-05
2.89557e-05
2.89653e-05
2.89793e-05
2.8999e-05
2.8999e-05
3.19612e-05
3.19618e-05
3.1935e-05
3.18822e-05
3.18065e-05
3.17131e-05
3.1608e-05
3.14971e-05
3.13851e-05
3.12753e-05
3.11696e-05
3.10686e-05
3.09721e-05
3.08792e-05
3.07888e-05
3.06995e-05
3.06104e-05
3.05202e-05
3.04285e-05
3.03347e-05
3.02386e-05
3.01405e-05
3.00408e-05
2.99403e-05
2.98398e-05
2.97402e-05
2.96426e-05
2.95481e-05
2.94577e-05
2.93723e-05
2.9293e-05
2.92204e-05
2.91552e-05
2.90979e-05
2.90484e-05
2.90072e-05
2.89737e-05
2.89475e-05
2.89278e-05
2.89138e-05
2.89046e-05
2.88993e-05
2.88969e-05
2.88969e-05
2.88987e-05
2.89023e-05
2.8908e-05
2.89168e-05
2.89296e-05
2.89478e-05
2.89478e-05
3.21373e-05
3.21238e-05
3.20833e-05
3.20167e-05
3.19274e-05
3.18207e-05
3.17028e-05
3.15798e-05
3.14563e-05
3.13356e-05
3.12195e-05
3.11085e-05
3.1002e-05
3.08995e-05
3.07998e-05
3.0702e-05
3.0605e-05
3.05081e-05
3.04106e-05
3.03122e-05
3.02126e-05
3.01121e-05
3.00111e-05
2.991e-05
2.98097e-05
2.97109e-05
2.96144e-05
2.9521e-05
2.94316e-05
2.93469e-05
2.92677e-05
2.91947e-05
2.91285e-05
2.90698e-05
2.90186e-05
2.89752e-05
2.89392e-05
2.89105e-05
2.88885e-05
2.88723e-05
2.8861e-05
2.88538e-05
2.88497e-05
2.88481e-05
2.88484e-05
2.88505e-05
2.88549e-05
2.88621e-05
2.88733e-05
2.88898e-05
2.88898e-05
3.23394e-05
3.23087e-05
3.22528e-05
3.21717e-05
3.20679e-05
3.19465e-05
3.18141e-05
3.16765e-05
3.15386e-05
3.14033e-05
3.12721e-05
3.11457e-05
3.10241e-05
3.09067e-05
3.07929e-05
3.06818e-05
3.05729e-05
3.04657e-05
3.036e-05
3.02556e-05
3.0152e-05
3.00493e-05
2.9948e-05
2.98484e-05
2.97509e-05
2.96561e-05
2.95643e-05
2.94761e-05
2.93917e-05
2.93116e-05
2.92363e-05
2.91662e-05
2.91018e-05
2.90436e-05
2.8992e-05
2.89472e-05
2.89092e-05
2.88778e-05
2.88527e-05
2.88333e-05
2.88189e-05
2.88085e-05
2.88015e-05
2.8797e-05
2.87947e-05
2.87945e-05
2.87965e-05
2.88016e-05
2.88109e-05
2.88254e-05
2.88254e-05
3.25643e-05
3.25136e-05
3.24409e-05
3.23442e-05
3.22246e-05
3.20869e-05
3.19371e-05
3.17816e-05
3.16243e-05
3.14682e-05
3.13155e-05
3.1167e-05
3.10233e-05
3.08842e-05
3.07495e-05
3.06191e-05
3.0493e-05
3.03713e-05
3.02543e-05
3.0142e-05
3.00336e-05
2.99291e-05
2.9829e-05
2.97333e-05
2.96423e-05
2.95559e-05
2.94741e-05
2.93967e-05
2.93235e-05
2.92542e-05
2.91887e-05
2.9127e-05
2.90692e-05
2.90155e-05
2.89664e-05
2.89223e-05
2.88833e-05
2.88498e-05
2.88215e-05
2.87982e-05
2.87795e-05
2.87647e-05
2.87533e-05
2.87447e-05
2.87384e-05
2.87345e-05
2.87333e-05
2.87356e-05
2.87424e-05
2.87547e-05
2.87547e-05
3.28064e-05
3.27327e-05
3.26419e-05
3.25286e-05
3.23916e-05
3.22348e-05
3.20641e-05
3.1884e-05
3.16998e-05
3.15153e-05
3.13326e-05
3.11534e-05
3.09787e-05
3.08093e-05
3.06457e-05
3.04888e-05
3.03391e-05
3.01978e-05
3.0066e-05
2.99438e-05
2.98302e-05
2.97246e-05
2.96272e-05
2.95381e-05
2.94571e-05
2.93839e-05
2.93183e-05
2.92593e-05
2.92053e-05
2.91552e-05
2.9108e-05
2.9063e-05
2.90194e-05
2.8977e-05
2.8936e-05
2.88966e-05
2.88596e-05
2.88254e-05
2.87946e-05
2.87673e-05
2.87435e-05
2.87232e-05
2.87059e-05
2.86915e-05
2.86798e-05
2.86709e-05
2.86653e-05
2.86639e-05
2.86677e-05
2.86778e-05
2.86778e-05
3.30566e-05
3.29574e-05
3.28474e-05
3.2716e-05
3.25595e-05
3.23791e-05
3.21793e-05
3.19669e-05
3.17471e-05
3.15243e-05
3.13014e-05
3.10809e-05
3.0865e-05
3.06556e-05
3.04554e-05
3.02657e-05
3.00876e-05
2.99231e-05
2.97731e-05
2.96374e-05
2.95165e-05
2.9409e-05
2.93154e-05
2.92357e-05
2.91693e-05
2.91155e-05
2.90727e-05
2.90387e-05
2.90115e-05
2.89891e-05
2.89703e-05
2.8953e-05
2.89344e-05
2.89135e-05
2.88894e-05
2.88623e-05
2.88327e-05
2.88016e-05
2.87702e-05
2.87397e-05
2.87108e-05
2.86839e-05
2.86595e-05
2.86377e-05
2.86189e-05
2.86035e-05
2.85922e-05
2.85861e-05
2.85862e-05
2.85939e-05
2.85939e-05
3.33025e-05
3.31756e-05
3.30455e-05
3.28946e-05
3.27128e-05
3.25008e-05
3.22641e-05
3.20095e-05
3.17433e-05
3.14707e-05
3.1196e-05
3.09236e-05
3.06584e-05
3.04034e-05
3.01606e-05
2.99299e-05
2.97137e-05
2.95157e-05
2.9338e-05
2.91824e-05
2.90504e-05
2.89397e-05
2.88509e-05
2.87838e-05
2.87375e-05
2.87103e-05
2.86988e-05
2.87003e-05
2.87118e-05
2.87296e-05
2.87506e-05
2.87715e-05
2.87893e-05
2.8803e-05
2.88086e-05
2.88051e-05
2.87923e-05
2.87714e-05
2.87442e-05
2.87129e-05
2.86797e-05
2.86461e-05
2.86135e-05
2.85829e-05
2.85554e-05
2.85318e-05
2.85133e-05
2.85012e-05
2.84971e-05
2.85021e-05
2.85021e-05
3.3528e-05
3.33721e-05
3.322e-05
3.30438e-05
3.28305e-05
3.25791e-05
3.22953e-05
3.19872e-05
3.16627e-05
3.13292e-05
3.09941e-05
3.06655e-05
3.03441e-05
3.00291e-05
2.97255e-05
2.94378e-05
2.91713e-05
2.89303e-05
2.87182e-05
2.85377e-05
2.83908e-05
2.82753e-05
2.81907e-05
2.81369e-05
2.81129e-05
2.81166e-05
2.81448e-05
2.81936e-05
2.82586e-05
2.83342e-05
2.84132e-05
2.849e-05
2.85598e-05
2.86204e-05
2.86688e-05
2.87038e-05
2.87217e-05
2.87224e-05
2.8708e-05
2.86817e-05
2.86471e-05
2.86078e-05
2.85667e-05
2.85261e-05
2.84881e-05
2.84546e-05
2.84273e-05
2.84081e-05
2.83986e-05
2.84006e-05
2.84006e-05
3.3713e-05
3.35252e-05
3.33475e-05
3.3142e-05
3.289e-05
3.25894e-05
3.22473e-05
3.18743e-05
3.14818e-05
3.10834e-05
3.06833e-05
3.02814e-05
2.98802e-05
2.94883e-05
2.91129e-05
2.87602e-05
2.84361e-05
2.81459e-05
2.78938e-05
2.76833e-05
2.75168e-05
2.73945e-05
2.73129e-05
2.72724e-05
2.72718e-05
2.73089e-05
2.73803e-05
2.74815e-05
2.7607e-05
2.77502e-05
2.79033e-05
2.80584e-05
2.82065e-05
2.83372e-05
2.84463e-05
2.85332e-05
2.85972e-05
2.86355e-05
2.86476e-05
2.86364e-05
2.86069e-05
2.8565e-05
2.85165e-05
2.84654e-05
2.84157e-05
2.83705e-05
2.83326e-05
2.83046e-05
2.82887e-05
2.82869e-05
2.82869e-05
3.38325e-05
3.36112e-05
3.34055e-05
3.31651e-05
3.28657e-05
3.25057e-05
3.20952e-05
3.16495e-05
3.11892e-05
3.07151e-05
3.02248e-05
2.9729e-05
2.9238e-05
2.87607e-05
2.83054e-05
2.788e-05
2.74915e-05
2.71462e-05
2.68494e-05
2.6605e-05
2.6416e-05
2.62838e-05
2.62033e-05
2.61747e-05
2.61971e-05
2.62683e-05
2.63847e-05
2.65416e-05
2.67328e-05
2.69508e-05
2.71867e-05
2.74308e-05
2.76723e-05
2.78999e-05
2.81024e-05
2.82676e-05
2.8395e-05
2.84856e-05
2.8542e-05
2.85615e-05
2.85487e-05
2.85114e-05
2.84583e-05
2.83979e-05
2.83357e-05
2.82773e-05
2.8227e-05
2.81884e-05
2.81645e-05
2.8158e-05
2.8158e-05
3.3862e-05
3.3606e-05
3.33689e-05
3.30871e-05
3.27321e-05
3.23042e-05
3.182e-05
3.13048e-05
3.07596e-05
3.01815e-05
2.95879e-05
2.8991e-05
2.8402e-05
2.78317e-05
2.72904e-05
2.67873e-05
2.63306e-05
2.59274e-05
2.55833e-05
2.5303e-05
2.50897e-05
2.49456e-05
2.48641e-05
2.48455e-05
2.4889e-05
2.49925e-05
2.51526e-05
2.53647e-05
2.56225e-05
2.59182e-05
2.62421e-05
2.65833e-05
2.69291e-05
2.7266e-05
2.75801e-05
2.78572e-05
2.8084e-05
2.82515e-05
2.83668e-05
2.84356e-05
2.84567e-05
2.84365e-05
2.83864e-05
2.83188e-05
2.8245e-05
2.81723e-05
2.81077e-05
2.80565e-05
2.80228e-05
2.80101e-05
2.80101e-05
3.37753e-05
3.34833e-05
3.32117e-05
3.2883e-05
3.2466e-05
3.19675e-05
3.14143e-05
3.08087e-05
3.01505e-05
2.94624e-05
2.87588e-05
2.8054e-05
2.73618e-05
2.6695e-05
2.60655e-05
2.54838e-05
2.49588e-05
2.44981e-05
2.41075e-05
2.37917e-05
2.35541e-05
2.33974e-05
2.33138e-05
2.33033e-05
2.33653e-05
2.34978e-05
2.36978e-05
2.39611e-05
2.42818e-05
2.46523e-05
2.50632e-05
2.55031e-05
2.59582e-05
2.64133e-05
2.68516e-05
2.72557e-05
2.7609e-05
2.78958e-05
2.81012e-05
2.82356e-05
2.83092e-05
2.83244e-05
2.82902e-05
2.82227e-05
2.81387e-05
2.8052e-05
2.79715e-05
2.79054e-05
2.78597e-05
2.78388e-05
2.78388e-05
3.35457e-05
3.32175e-05
3.29091e-05
3.25304e-05
3.20508e-05
3.14888e-05
3.08448e-05
3.01217e-05
2.93492e-05
2.85454e-05
2.77272e-05
2.6912e-05
2.61158e-05
2.53535e-05
2.46382e-05
2.39811e-05
2.33916e-05
2.28773e-05
2.2444e-05
2.20959e-05
2.18362e-05
2.1667e-05
2.15818e-05
2.15786e-05
2.16568e-05
2.18147e-05
2.20498e-05
2.23582e-05
2.27348e-05
2.3173e-05
2.3664e-05
2.4197e-05
2.47585e-05
2.53325e-05
2.59005e-05
2.64422e-05
2.69363e-05
2.73627e-05
2.77025e-05
2.79397e-05
2.80845e-05
2.81541e-05
2.81547e-05
2.81e-05
2.80118e-05
2.79117e-05
2.78145e-05
2.77313e-05
2.76709e-05
2.76394e-05
2.76394e-05
3.31473e-05
3.27835e-05
3.2439e-05
3.20126e-05
3.14823e-05
3.08347e-05
3.00719e-05
2.92341e-05
2.83442e-05
2.74226e-05
2.64901e-05
2.55667e-05
2.46707e-05
2.38183e-05
2.30235e-05
2.22979e-05
2.1651e-05
2.10899e-05
2.062e-05
2.02451e-05
1.99674e-05
1.97873e-05
1.97029e-05
1.97076e-05
1.98007e-05
1.99811e-05
2.02464e-05
2.05934e-05
2.1018e-05
2.15144e-05
2.20751e-05
2.26905e-05
2.33484e-05
2.40334e-05
2.47271e-05
2.54075e-05
2.60503e-05
2.663e-05
2.71219e-05
2.75049e-05
2.77619e-05
2.79052e-05
2.79601e-05
2.79368e-05
2.78558e-05
2.77458e-05
2.76324e-05
2.75298e-05
2.74516e-05
2.74064e-05
2.74064e-05
3.25551e-05
3.21583e-05
3.17841e-05
3.13273e-05
3.07249e-05
2.99615e-05
2.90878e-05
2.81354e-05
2.71287e-05
2.60924e-05
2.50507e-05
2.40261e-05
2.30385e-05
2.21053e-05
2.12407e-05
2.04563e-05
1.97612e-05
1.9162e-05
1.86634e-05
1.82685e-05
1.79787e-05
1.77937e-05
1.77119e-05
1.77254e-05
1.78334e-05
1.80344e-05
1.83265e-05
1.8707e-05
1.91721e-05
1.97172e-05
2.03363e-05
2.10212e-05
2.17614e-05
2.25436e-05
2.33505e-05
2.41609e-05
2.49493e-05
2.56867e-05
2.63428e-05
2.68885e-05
2.73e-05
2.75595e-05
2.76864e-05
2.77146e-05
2.76585e-05
2.75477e-05
2.74176e-05
2.72959e-05
2.71969e-05
2.71342e-05
2.71342e-05
3.17443e-05
3.13195e-05
3.09356e-05
3.04356e-05
2.97286e-05
2.88626e-05
2.78826e-05
2.68192e-05
2.57014e-05
2.45583e-05
2.34171e-05
2.23023e-05
2.1235e-05
2.02329e-05
1.93103e-05
1.84784e-05
1.77455e-05
1.71178e-05
1.65991e-05
1.61917e-05
1.58962e-05
1.57118e-05
1.56365e-05
1.56614e-05
1.57854e-05
1.6007e-05
1.63242e-05
1.67344e-05
1.72348e-05
1.78212e-05
1.84886e-05
1.92307e-05
2.00388e-05
2.09018e-05
2.18049e-05
2.27289e-05
2.36497e-05
2.45378e-05
2.53591e-05
2.60777e-05
2.666e-05
2.70798e-05
2.73203e-05
2.74139e-05
2.74037e-05
2.73073e-05
2.7167e-05
2.70238e-05
2.69014e-05
2.6817e-05
2.6817e-05
3.06925e-05
3.02502e-05
2.98698e-05
2.92894e-05
2.84897e-05
2.75302e-05
2.64502e-05
2.5284e-05
2.40657e-05
2.2828e-05
2.16006e-05
2.04095e-05
1.92765e-05
1.8219e-05
1.72512e-05
1.63835e-05
1.56238e-05
1.49772e-05
1.4447e-05
1.40347e-05
1.37401e-05
1.3562e-05
1.34975e-05
1.35371e-05
1.36795e-05
1.39229e-05
1.42652e-05
1.4704e-05
1.52366e-05
1.58594e-05
1.65682e-05
1.73578e-05
1.82214e-05
1.91498e-05
2.01311e-05
2.11493e-05
2.21832e-05
2.3205e-05
2.41807e-05
2.50706e-05
2.58326e-05
2.64285e-05
2.68308e-05
2.70277e-05
2.70743e-05
2.7011e-05
2.68709e-05
2.67067e-05
2.65596e-05
2.64492e-05
2.64492e-05
2.93751e-05
2.89328e-05
2.85312e-05
2.78697e-05
2.69958e-05
2.5955e-05
2.47869e-05
2.35314e-05
2.22273e-05
2.09108e-05
1.96134e-05
1.83618e-05
1.7178e-05
1.60793e-05
1.50791e-05
1.41872e-05
1.34109e-05
1.27546e-05
1.22211e-05
1.18111e-05
1.1524e-05
1.13576e-05
1.13087e-05
1.1367e-05
1.15309e-05
1.17985e-05
1.21675e-05
1.26355e-05
1.31997e-05
1.38568e-05
1.46031e-05
1.54341e-05
1.63442e-05
1.7326e-05
1.83702e-05
1.94638e-05
2.05893e-05
2.1723e-05
2.28333e-05
2.38807e-05
2.48187e-05
2.55988e-05
2.61788e-05
2.65314e-05
2.66606e-05
2.66435e-05
2.65195e-05
2.63406e-05
2.61649e-05
2.6025e-05
2.6025e-05
2.77803e-05
2.73725e-05
2.69124e-05
2.61887e-05
2.52516e-05
2.41391e-05
2.28959e-05
2.15668e-05
2.01945e-05
1.8817e-05
1.7467e-05
1.61715e-05
1.49523e-05
1.38261e-05
1.28057e-05
1.19005e-05
1.1117e-05
1.04595e-05
9.93016e-06
9.52932e-06
9.25578e-06
9.10684e-06
9.07821e-06
9.15953e-06
9.34891e-06
9.64402e-06
1.00425e-05
1.05418e-05
1.11389e-05
1.18307e-05
1.26135e-05
1.34832e-05
1.44347e-05
1.54621e-05
1.65578e-05
1.77116e-05
1.89096e-05
2.01324e-05
2.13533e-05
2.2536e-05
2.36342e-05
2.45938e-05
2.53595e-05
2.58864e-05
2.61508e-05
2.61912e-05
2.6101e-05
2.59179e-05
2.57134e-05
2.55405e-05
2.55405e-05
2.58732e-05
2.54958e-05
2.49716e-05
2.42079e-05
2.32302e-05
2.207e-05
2.0775e-05
1.93945e-05
1.79747e-05
1.65558e-05
1.51714e-05
1.38487e-05
1.26088e-05
1.14681e-05
1.04388e-05
9.53003e-06
8.74814e-06
8.09711e-06
7.57892e-06
7.19366e-06
6.93968e-06
6.81364e-06
6.81035e-06
6.91936e-06
7.1385e-06
7.46519e-06
7.89688e-06
8.43073e-06
9.06367e-06
9.79233e-06
1.06129e-05
1.15214e-05
1.25129e-05
1.35821e-05
1.47225e-05
1.59259e-05
1.71815e-05
1.8474e-05
1.97818e-05
2.10742e-05
2.23088e-05
2.34312e-05
2.43784e-05
2.50889e-05
2.55198e-05
2.56619e-05
2.56078e-05
2.54333e-05
2.5204e-05
2.49933e-05
2.49933e-05
2.36618e-05
2.33057e-05
2.27692e-05
2.19889e-05
2.09777e-05
1.97765e-05
1.84414e-05
1.70258e-05
1.55772e-05
1.41358e-05
1.27349e-05
1.14007e-05
1.0154e-05
9.01067e-06
7.98278e-06
7.07937e-06
6.30687e-06
5.6694e-06
5.16896e-06
4.80552e-06
4.57705e-06
4.47956e-06
4.50685e-06
4.64861e-06
4.90236e-06
5.26533e-06
5.73471e-06
6.30744e-06
6.9802e-06
7.74935e-06
8.61086e-06
9.56034e-06
1.0593e-05
1.17035e-05
1.28859e-05
1.41332e-05
1.54366e-05
1.67842e-05
1.81592e-05
1.95368e-05
2.0881e-05
2.21417e-05
2.32543e-05
2.41463e-05
2.47535e-05