# vtk DataFile Version 2.0
insac
ASCII
DATASET STRUCTURED_GRID
DIMENSIONS 51 51 1
POINTS 2601 float
0 0 0
0.02 0 0
0.04 0 0
0.06 0 0
0.08 0 0
0.1 0 0
0.12 0 0
0.14 0 0
0.16 0 0
0.18 0 0
0.2 0 0
0.22 0 0
0.24 0 0
0.26 0 0
0.28 0 0
0.3 0 0
0.32 0 0
0.34 0 0
0.36 0 0
0.38 0 0
0.4 0 0
0.42 0 0
0.44 0 0
0.46 0 0
0.48 0 0
0.5 0 0
0.52 0 0
0.54 0 0
0.56 0 0
0.58 0 0
0.6 0 0
0.62 0 0
0.64 0 0
0.66 0 0
0.68 0 0
0.7 0 0
0.72 0 0
0.74 0 0
0.76 0 0
0.78 0 0
0.8 0 0
0.82 0 0
0.84 0 0
0.86 0 0
0.88 0 0
0.9 0 0
0.92 0 0
0.94 0 0
0.96 0 0
0.98 0 0
1 0 0
0 0.02 0
0.02 0.02 0
0.04 0.02 0
0.06 0.02 0
0.08 0.02 0
0.1 0.02 0
0.12 0.02 0
0.14 0.02 0
0.16 0.02 0
0.18 0.02 0
0.2 0.02 0
0.22 0.02 0
0.24 0.02 0
0.26 0.02 0
0.28 0.02 0
0.3 0.02 0
0.32 0.02 0
0.34 0.02 0
0.36 0.02 0
0.38 0.02 0
0.4 0.02 0
0.42 0.02 0
0.44 0.02 0
0.46 0.02 0
0.48 0.02 0
0.5 0.02 0
0.52 0.02 0
0.54 0.02 0
0.56 0.02 0
0.58 0.02 0
0.6 0.02 0
0.62 0.02 0
0.64 0.02 0
0.66 0.02 0
0.68 0.02 0
0.7 0.02 0
0.72 0.02 0
0.74 0.02 0
0.76 0.02 0
0.78 0.02 0
0.8 0.02 0
0.82 0.02 0
0.84 0.02 0
0.86 0.02 0
0.88 0.02 0
0.9 0.02 0
0.92 0.02 0
0.94 0.02 0
0.96 0.02 0
0.98 0.02 0
1 0.02 0
0 0.04 0
0.02 0.04 0
0.04 0.04 0
0.06 0.04 0
0.08 0.04 0
0.1 0.04 0
0.12 0.04 0
0.14 0.04 0
0.16 0.04 0
0.18 0.04 0
0.2 0.04 0
0.22 0.04 0
0.24 0.04 0
0.26 0.04 0
0.28 0.04 0
0.3 0.04 0
0.32 0.04 0
0.34 0.04 0
0.36 0.04 0
0.38 0.04 0
0.4 0.04 0
0.42 0.04 0
0.44 0.04 0
0.46 0.04 0
0.48 0.04 0
0.5 0.04 0
0.52 0.04 0
0.54 0.04 0
0.56 0.04 0
0.58 0.04 0
0.6 0.04 0
0.62 0.04 0
0.64 0.04 0
0.66 0.04 0
0.68 0.04 0
0.7 0.04 0
0.72 0.04 0
0.74 0.04 0
0.76 0.04 0
0.78 0.04 0
0.8 0.04 0
0.82 0.04 0
0.84 0.04 0
0.86 0.04 0
0.88 0.04 0
0.9 0.04 0
0.92 0.04 0
0.94 0.04 0
0.96 0.04 0
0.98 0.04 0
1 0.04 0
0 0.06 0
0.02 0.06 0
0.04 0.06 0
0.06 0.06 0
0.08 0.06 0
0.1 0.06 0
0.12 0.06 0
0.14 0.06 0
0.16 0.06 0
0.18 0.06 0
0.2 0.06 0
0.22 0.06 0
0.24 0.06 0
0.26 0.06 0
0.28 0.06 0
0.3 0.06 0
0.32 0.06 0
0.34 0.06 0
0.36 0.06 0
0.38 0.06 0
0.4 0.06 0
0.42 0.06 0
0.44 0.06 0
0.46 0.06 0
0.48 0.06 0
0.5 0.06 0
0.52 0.06 0
0.54 0.06 0
0.56 0.06 0
0.58 0.06 0
0.6 0.06 0
0.62 0.06 0
0.64 0.06 0
0.66 0.06 0
0.68 0.06 0
0.7 0.06 0
0.72 0.06 0
0.74 0.06 0
0.76 0.06 0
0.78 0.06 0
0.8 0.06 0
0.82 0.06 0
0.84 0.06 0
0.86 0.06 0
0.88 0.06 0
0.9 0.06 0
0.92 0.06 0
0.94 0.06 0
0.96 0.06 0
0.98 0.06 0
1 0.06 0
0 0.08 0
0.02 0.08 0
0.04 0.08 0
0.06 0.08 0
0.08 0.08 0
0.1 0.08 0
0.12 0.08 0
0.14 0.08 0
0.16 0.08 0
0.18 0.08 0
0.2 0.08 0
0.22 0.08 0
0.24 0.08 0
0.26 0.08 0
0.28 0.08 0
0.3 0.08 0
0.32 0.08 0
0.34 0.08 0
0.36 0.08 0
0.38 0.08 0
0.4 0.08 0
0.42 0.08 0
0.44 0.08 0
0.46 0.08 0
0.48 0.08 0
0.5 0.08 0
0.52 0.08 0
0.54 0.08 0
0.56 0.08 0
0.58 0.08 0
0.6 0.08 0
0.62 0.08 0
0.64 0.08 0
0.66 0.08 0
0.68 0.08 0
0.7 0.08 0
0.72 0.08 0
0.74 0.08 0
0.76 0.08 0
0.78 0.08 0
0.8 0.08 0
0.82 0.08 0
0.84 0.08 0
0.86 0.08 0
0.88 0.08 0
0.9 0.08 0
0.92 0.08 0
0.94 0.08 0
0.96 0.08 0
0.98 0.08 0
1 0.08 0
0 0.1 0
0.02 0.1 0
0.04 0.1 0
0.06 0.1 0
0.08 0.1 0
0.1 0.1 0
0.12 0.1 0
0.14 0.1 0
0.16 0.1 0
0.18 0.1 0
0.2 0.1 0
0.22 0.1 0
0.24 0.1 0
0.26 0.1 0
0.28 0.1 0
0.3 0.1 0
0.32 0.1 0
0.34 0.1 0
0.36 0.1 0
0.38 0.1 0
0.4 0.1 0
0.42 0.1 0
0.44 0.1 0
0.46 0.1 0
0.48 0.1 0
0.5 0.1 0
0.52 0.1 0
0.54 0.1 0
0.56 0.1 0
0.58 0.1 0
0.6 0.1 0
0.62 0.1 0
0.64 0.1 0
0.66 0.1 0
0.68 0.1 0
0.7 0.1 0
0.72 0.1 0
0.74 0.1 0
0.76 0.1 0
0.78 0.1 0
0.8 0.1 0
0.82 0.1 0
0.84 0.1 0
0.86 0.1 0
0.88 0.1 0
0.9 0.1 0
0.92 0.1 0
0.94 0.1 0
0.96 0.1 0
0.98 0.1 0
1 0.1 0
0 0.12 0
0.02 0.12 0
0.04 0.12 0
0.06 0.12 0
0.08 0.12 0
0.1 0.12 0
0.12 0.12 0
0.14 0.12 0
0.16 0.12 0
0.18 0.12 0
0.2 0.12 0
0.22 0.12 0
0.24 0.12 0
0.26 0.12 0
0.28 0.12 0
0.3 0.12 0
0.32 0.12 0
0.34 0.12 0
0.36 0.12 0
0.38 0.12 0
0.4 0.12 0
0.42 0.12 0
0.44 0.12 0
0.46 0.12 0
0.48 0.12 0
0.5 0.12 0
0.52 0.12 0
0.54 0.12 0
0.56 0.12 0
0.58 0.12 0
0.6 0.12 0
0.62 0.12 0
0.64 0.12 0
0.66 0.12 0
0.68 0.12 0
0.7 0.12 0
0.72 0.12 0
0.74 0.12 0
0.76 0.12 0
0.78 0.12 0
0.8 0.12 0
0.82 0.12 0
0.84 0.12 0
0.86 0.12 0
0.88 0.12 0
0.9 0.12 0
0.92 0.12 0
0.94 0.12 0
0.96 0.12 0
0.98 0.12 0
1 0.12 0
0 0.14 0
0.02 0.14 0
0.04 0.14 0
0.06 0.14 0
0.08 0.14 0
0.1 0.14 0
0.12 0.14 0
0.14 0.14 0
0.16 0.14 0
0.18 0.14 0
0.2 0.14 0
0.22 0.14 0
0.24 0.14 0
0.26 0.14 0
0.28 0.14 0
0.3 0.14 0
0.32 0.14 0
0.34 0.14 0
0.36 0.14 0
0.38 0.14 0
0.4 0.14 0
0.42 0.14 0
0.44 0.14 0
0.46 0.14 0
0.48 0.14 0
0.5 0.14 0
0.52 0.14 0
0.54 0.14 0
0.56 0.14 0
0.58 0.14 0
0.6 0.14 0
0.62 0.14 0
0.64 0.14 0
0.66 0.14 0
0.68 0.14 0
0.7 0.14 0
0.72 0.14 0
0.74 0.14 0
0.76 0.14 0
0.78 0.14 0
0.8 0.14 0
0.82 0.14 0
0.84 0.14 0
0.86 0.14 0
0.88 0.14 0
0.9 0.14 0
0.92 0.14 0
0.94 0.14 0
0.96 0.14 0
0.98 0.14 0
1 0.14 0
0 0.16 0
0.02 0.16 0
0.04 0.16 0
0.06 0.16 0
0.08 0.16 0
0.1 0.16 0
0.12 0.16 0
0.14 0.16 0
0.16 0.16 0
0.18 0.16 0
0.2 0.16 0
0.22 0.16 0
0.24 0.16 0
0.26 0.16 0
0.28 0.16 0
0.3 0.16 0
0.32 0.16 0
0.34 0.16 0
0.36 0.16 0
0.38 0.16 0
0.4 0.16 0
0.42 0.16 0
0.44 0.16 0
0.46 0.16 0
0.48 0.16 0
0.5 0.16 0
0.52 0.16 0
0.54 0.16 0
0.56 0.16 0
0.58 0.16 0
0.6 0.16 0
0.62 0.16 0
0.64 0.16 0
0.66 0.16 0
0.68 0.16 0
0.7 0.16 0
0.72 0.16 0
0.74 0.16 0
0.76 0.16 0
0.78 0.16 0
0.8 0.16 0
0.82 0.16 0
0.84 0.16 0
0.86 0.16 0
0.88 0.16 0
0.9 0.16 0
0.92 0.16 0
0.94 0.16 0
0.96 0.16 0
0.98 0.16 0
1 0.16 0
0 0.18 0
0.02 0.18 0
0.04 0.18 0
0.06 0.18 0
0.08 0.18 0
0.1 0.18 0
0.12 0.18 0
0.14 0.18 0
0.16 0.18 0
0.18 0.18 0
0.2 0.18 0
0.22 0.18 0
0.24 0.18 0
0.26 0.18 0
0.28 0.18 0
0.3 0.18 0
0.32 0.18 0
0.34 0.18 0
0.36 0.18 0
0.38 0.18 0
0.4 0.18 0
0.42 0.18 0
0.44 0.18 0
0.46 0.18 0
0.48 0.18 0
0.5 0.18 0
0.52 0.18 0
0.54 0.18 0
0.56 0.18 0
0.58 0.18 0
0.6 0.18 0
0.62 0.18 0
0.64 0.18 0
0.66 0.18 0
0.68 0.18 0
0.7 0.18 0
0.72 0.18 0
0.74 0.18 0
0.76 0.18 0
0.78 0.18 0
0.8 0.18 0
0.82 0.18 0
0.84 0.18 0
0.86 0.18 0
0.88 0.18 0
0.9 0.18 0
0.92 0.18 0
0.94 0.18 0
0.96 0.18 0
0.98 0.18 0
1 0.18 0
0 0.2 0
0.02 0.2 0
0.04 0.2 0
0.06 0.2 0
0.08 0.2 0
0.1 0.2 0
0.12 0.2 0
0.14 0.2 0
0.16 0.2 0
0.18 0.2 0
0.2 0.2 0
0.22 0.2 0
0.24 0.2 0
0.26 0.2 0
0.28 0.2 0
0.3 0.2 0
0.32 0.2 0
0.34 0.2 0
0.36 0.2 0
0.38 0.2 0
0.4 0.2 0
0.42 0.2 0
0.44 0.2 0
0.46 0.2 0
0.48 0.2 0
0.5 0.2 0
0.52 0.2 0
0.54 0.2 0
0.56 0.2 0
0.58 0.2 0
0.6 0.2 0
0.62 0.2 0
0.64 0.2 0
0.66 0.2 0
0.68 0.2 0
0.7 0.2 0
0.72 0.2 0
0.74 0.2 0
0.76 0.2 0
0.78 0.2 0
0.8 0.2 0
0.82 0.2 0
0.84 0.2 0
0.86 0.2 0
0.88 0.2 0
0.9 0.2 0
0.92 0.2 0
0.94 0.2 0
0.96 0.2 0
0.98 0.2 0
1 0.2 0
0 0.22 0
0.02 0.22 0
0.04 0.22 0
0.06 0.22 0
0.08 0.22 0
0.1 0.22 0
0.12 0.22 0
0.14 0.22 0
0.16 0.22 0
0.18 0.22 0
0.2 0.22 0
0.22 0.22 0
0.24 0.22 0
0.26 0.22 0
0.28 0.22 0
0.3 0.22 0
0.32 0.22 0
0.34 0.22 0
0.36 0.22 0
0.38 0.22 0
0.4 0.22 0
0.42 0.22 0
0.44 0.22 0
0.46 0.22 0
0.48 0.22 0
0.5 0.22 0
0.52 0.22 0
0.54 0.22 0
0.56 0.22 0
0.58 0.22 0
0.6 0.22 0
0.62 0.22 0
0.64 0.22 0
0.66 0.22 0
0.68 0.22 0
0.7 0.22 0
0.72 0.22 0
0.74 0.22 0
0.76 0.22 0
0.78 0.22 0
0.8 0.22 0
0.82 0.22 0
0.84 0.22 0
0.86 0.22 0
0.88 0.22 0
0.9 0.22 0
0.92 0.22 0
0.94 0.22 0
0.96 0.22 0
0.98 0.22 0
1 0.22 0
0 0.24 0
0.02 0.24 0
0.04 0.24 0
0.06 0.24 0
0.08 0.24 0
0.1 0.24 0
0.12 0.24 0
0.14 0.24 0
0.16 0.24 0
0.18 0.24 0
0.2 0.24 0
0.22 0.24 0
0.24 0.24 0
0.26 0.24 0
0.28 0.24 0
0.3 0.24 0
0.32 0.24 0
0.34 0.24 0
0.36 0.24 0
0.38 0.24 0
0.4 0.24 0
0.42 0.24 0
0.44 0.24 0
0.46 0.24 0
0.48 0.24 0
0.5 0.24 0
0.52 0.24 0
0.54 0.24 0
0.56 0.24 0
0.58 0.24 0
0.6 0.24 0
0.62 0.24 0
0.64 0.24 0
0.66 0.24 0
0.68 0.24 0
0.7 0.24 0
0.72 0.24 0
0.74 0.24 0
0.76 0.24 0
0.78 0.24 0
0.8 0.24 0
0.82 0.24 0
0.84 0.24 0
0.86 0.24 0
0.88 0.24 0
0.9 0.24 0
0.92 0.24 0
0.94 0.24 0
0.96 0.24 0
0.98 0.24 0
1 0.24 0
0 0.26 0
0.02 0.26 0
0.04 0.26 0
0.06 0.26 0
0.08 0.26 0
0.1 0.26 0
0.12 0.26 0
0.14 0.26 0
0.16 0.26 0
0.18 0.26 0
0.2 0.26 0
0.22 0.26 0
0.24 0.26 0
0.26 0.26 0
0.28 0.26 0
0.3 0.26 0
0.32 0.26 0
0.34 0.26 0
0.36 0.26 0
0.38 0.26 0
0.4 0.26 0
0.42 0.26 0
0.44 0.26 0
0.46 0.26 0
0.48 0.26 0
0.5 0.26 0
0.52 0.26 0
0.54 0.26 0
0.56 0.26 0
0.58 0.26 0
0.6 0.26 0
0.62 0.26 0
0.64 0.26 0
0.66 0.26 0
0.68 0.26 0
0.7 0.26 0
0.72 0.26 0
0.74 0.26 0
0.76 0.26 0
0.78 0.26 0
0.8 0.26 0
0.82 0.26 0
0.84 0.26 0
0.86 0.26 0
0.88 0.26 0
0.9 0.26 0
0.92 0.26 0
0.94 0.26 0
0.96 0.26 0
0.98 0.26 0
1 0.26 0
0 0.28 0
0.02 0.28 0
0.04 0.28 0
0.06 0.28 0
0.08 0.28 0
0.1 0.28 0
0.12 0.28 0
0.14 0.28 0
0.16 0.28 0
0.18 0.28 0
0.2 0.28 0
0.22 0.28 0
0.24 0.28 0
0.26 0.28 0
0.28 0.28 0
0.3 0.28 0
0.32 0.28 0
0.34 0.28 0
0.36 0.28 0
0.38 0.28 0
0.4 0.28 0
0.42 0.28 0
0.44 0.28 0
0.46 0.28 0
0.48 0.28 0
0.5 0.28 0
0.52 0.28 0
0.54 0.28 0
0.56 0.28 0
0.58 0.28 0
0.6 0.28 0
0.62 0.28 0
0.64 0.28 0
0.66 0.28 0
0.68 0.28 0
0.7 0.28 0
0.72 0.28 0
0.74 0.28 0
0.76 0.28 0
0.78 0.28 0
0.8 0.28 0
0.82 0.28 0
0.84 0.28 0
0.86 0.28 0
0.88 0.28 0
0.9 0.28 0
0.92 0.28 0
0.94 0.28 0
0.96 0.28 0
0.98 0.28 0
1 0.28 0
0 0.3 0
0.02 0.3 0
0.04 0.3 0
0.06 0.3 0
0.08 0.3 0
0.1 0.3 0
0.12 0.3 0
0.14 0.3 0
0.16 0.3 0
0.18 0.3 0
0.2 0.3 0
0.22 0.3 0
0.24 0.3 0
0.26 0.3 0
0.28 0.3 0
0.3 0.3 0
0.32 0.3 0
0.34 0.3 0
0.36 0.3 0
0.38 0.3 0
0.4 0.3 0
0.42 0.3 0
0.44 0.3 0
0.46 0.3 0
0.48 0.3 0
0.5 0.3 0
0.52 0.3 0
0.54 0.3 0
0.56 0.3 0
0.58 0.3 0
0.6 0.3 0
0.62 0.3 0
0.64 0.3 0
0.66 0.3 0
0.68 0.3 0
0.7 0.3 0
0.72 0.3 0
0.74 0.3 0
0.76 0.3 0
0.78 0.3 0
0.8 0.3 0
0.82 0.3 0
0.84 0.3 0
0.86 0.3 0
0.88 0.3 0
0.9 0.3 0
0.92 0.3 0
0.94 0.3 0
0.96 0.3 0
0.98 0.3 0
1 0.3 0
0 0.32 0
0.02 0.32 0
0.04 0.32 0
0.06 0.32 0
0.08 0.32 0
0.1 0.32 0
0.12 0.32 0
0.14 0.32 0
0.16 0.32 0
0.18 0.32 0
0.2 0.32 0
0.22 0.32 0
0.24 0.32 0
0.26 0.32 0
0.28 0.32 0
0.3 0.32 0
0.32 0.32 0
0.34 0.32 0
0.36 0.32 0
0.38 0.32 0
0.4 0.32 0
0.42 0.32 0
0.44 0.32 0
0.46 0.32 0
0.48 0.32 0
0.5 0.32 0
0.52 0.32 0
0.54 0.32 0
0.56 0.32 0
0.58 0.32 0
0.6 0.32 0
0.62 0.32 0
0.64 0.32 0
0.66 0.32 0
0.68 0.32 0
0.7 0.32 0
0.72 0.32 0
0.74 0.32 0
0.76 0.32 0
0.78 0.32 0
0.8 0.32 0
0.82 0.32 0
0.84 0.32 0
0.86 0.32 0
0.88 0.32 0
0.9 0.32 0
0.92 0.32 0
0.94 0.32 0
0.96 0.32 0
0.98 0.32 0
1 0.32 0
0 0.34 0
0.02 0.34 0
0.04 0.34 0
0.06 0.34 0
0.08 0.34 0
[...]
POINT_DATA 2601
SCALARS pressure float 1
LOOKUP_TABLE default
0.0254744
0.0254617
0.0253908
0.0252489
0.0250653
0.0248581
0.0246417
0.0244258
0.024216
0.024016
0.0238286
0.0236563
0.0235022
0.02337
0.0232641
0.0231895
0.0231515
0.0231555
0.023206
0.0233071
0.0234612
0.0236689
0.0239288
0.0242367
0.0245857
0.024966
0.0253654
0.0257689
0.0261601
0.0265214
0.0268352
0.027085
0.0272563
0.0273382
0.0273235
0.0272103
0.0270015
0.0267053
0.0263346
0.0259061
0.0254397
0.0249568
0.0244798
0.0240308
0.0236304
0.023298
0.0230484
0.0228954
0.0228341
0.0228666
0.0229103
0.0254908
0.0254773
0.0254115
0.0252845
0.0251205
0.0249344
0.0247385
0.0245411
0.0243476
0.0241616
0.0239861
0.0238237
0.0236775
0.023551
0.0234485
0.0233746
0.0233342
0.0233323
0.0233731
0.0234603
0.0235962
0.0237815
0.0240148
0.0242922
0.0246076
0.024952
0.0253139
0.0256797
0.026034
0.0263607
0.0266435
0.0268671
0.0270182
0.0270867
0.0270661
0.0269548
0.0267558
0.0264767
0.0261298
0.0257306
0.0252976
0.0248506
0.0244101
0.0239962
0.0236274
0.0233206
0.0230883
0.0229429
0.0228787
0.0229069
0.0229506
0.0255703
0.025548
0.0254789
0.0253663
0.0252244
0.025065
0.0248958
0.0247238
0.0245529
0.0243866
0.0242275
0.0240783
0.0239418
0.0238214
0.023721
0.0236448
0.0235973
0.023583
0.0236058
0.0236692
0.0237756
0.0239257
0.0241186
0.0243513
0.0246185
0.0249122
0.0252224
0.025537
0.0258422
0.0261233
0.0263657
0.0265554
0.0266804
0.0267316
0.0267031
0.0265937
0.0264063
0.0261481
0.0258305
0.0254678
0.0250767
0.0246751
0.0242812
0.0239124
0.0235841
0.0233105
0.0231009
0.0229668
0.0229014
0.0229306
0.0229795
0.0257256
0.0256828
0.0255909
0.0254753
0.025337
0.025188
0.025032
0.024874
0.0247164
0.0245617
0.0244117
0.0242685
0.0241348
0.0240137
0.0239087
0.0238241
0.0237643
0.0237336
0.0237363
0.0237761
0.0238557
0.0239766
0.0241384
0.0243389
0.0245735
0.0248354
0.0251151
0.0254012
0.0256808
0.0259395
0.0261631
0.0263379
0.0264519
0.0264961
0.0264647
0.0263562
0.0261735
0.0259237
0.0256178
0.0252699
0.0248963
0.0245141
0.0241404
0.0237914
0.023481
0.0232221
0.0230226
0.0228941
0.0228299
0.0228645
0.0229193
0.0259294
0.025858
0.025732
0.0256062
0.025465
0.0253213
0.0251741
0.0250265
0.0248788
0.0247323
0.0245877
0.0244466
0.0243111
0.0241842
0.0240692
0.0239703
0.0238919
0.0238389
0.0238158
0.0238269
0.0238755
0.023964
0.024093
0.024261
0.0244645
0.0246973
0.0249509
0.0252144
0.0254751
0.0257189
0.0259314
0.0260989
0.026209
0.0262521
0.0262222
0.0261173
0.0259401
0.0256974
0.0254002
0.0250624
0.0247
0.0243299
0.0239686
0.0236314
0.0233314
0.0230801
0.0228845
0.0227559
0.0226882
0.0227182
0.0227707
0.0261607
0.0260554
0.025887
0.0257439
0.0255923
0.0254471
0.025302
0.0251585
0.0250145
0.0248699
0.0247244
0.0245787
0.0244346
0.0242946
0.0241622
0.0240416
0.0239377
0.0238558
0.0238011
0.0237788
0.0237934
0.023848
0.0239445
0.0240825
0.0242594
0.0244698
0.0247057
0.0249565
0.0252095
0.0254504
0.0256642
0.0258364
0.0259537
0.0260057
0.0259852
0.0258895
0.0257206
0.0254851
0.0251937
0.0248604
0.0245014
0.0241337
0.023774
0.0234373
0.0231364
0.0228824
0.0226818
0.0225452
0.0224678
0.0224835
0.0225265
0.0263974
0.0262551
0.0260396
0.0258754
0.0257092
0.0255583
0.0254106
0.0252662
0.0251205
0.0249718
0.0248188
0.0246615
0.0245011
0.0243399
0.0241816
0.0240308
0.0238927
0.0237735
0.0236794
0.0236167
0.0235912
0.0236073
0.0236682
0.0237748
0.0239255
0.0241159
0.0243384
0.0245827
0.024836
0.0250834
0.0253092
0.0254976
0.0256341
0.0257065
0.0257063
0.0256295
0.0254768
0.0252541
0.0249717
0.0246437
0.0242863
0.0239171
0.0235531
0.0232099
0.0229004
0.0226355
0.022422
0.0222695
0.0221752
0.0221671
0.0221941
0.0266182
0.0264374
0.0261723
0.0259846
0.0258006
0.02564
0.0254853
0.0253345
0.0251808
0.0250212
0.0248529
0.0246755
0.0244897
0.0242978
0.0241036
0.0239121
0.0237296
0.023563
0.02342
0.0233081
0.0232345
0.0232057
0.023226
0.0232981
0.0234215
0.0235928
0.0238052
0.0240487
0.0243102
0.0245743
0.0248241
0.0250423
0.0252126
0.0253207
0.0253559
0.0253121
0.0251882
0.0249887
0.024723
0.0244047
0.0240506
0.0236786
0.0233065
0.0229509
0.0226255
0.0223418
0.0221074
0.0219309
0.0218126
0.0217726
0.0217787
0.026802
0.0265825
0.0262672
0.0260548
0.0258511
0.025678
0.0255121
0.0253497
0.0251816
0.0250034
0.0248114
0.0246043
0.0243828
0.0241491
0.0239073
0.0236632
0.0234239
0.0231977
0.0229937
0.022821
0.0226889
0.0226055
0.0225772
0.0226083
0.0227001
0.0228505
0.0230535
0.0232997
0.0235759
0.0238662
0.0241525
0.0244158
0.0246372
0.0247998
0.02489
0.0248986
0.0248218
0.0246617
0.0244262
0.0241279
0.0237835
0.0234116
0.0230311
0.0226598
0.0223132
0.0220037
0.0217409
0.0215327
0.0213834
0.0213044
0.0212855
0.026928
0.0266705
0.0263057
0.0260685
0.0258438
0.0256555
0.0254743
0.0252948
0.0251053
0.0249003
0.024675
0.0244277
0.0241587
0.0238706
0.0235679
0.0232571
0.0229466
0.0226461
0.0223664
0.0221187
0.0219143
0.0217635
0.0216751
0.0216555
0.0217081
0.0218326
0.0220244
0.0222747
0.0225709
0.0228966
0.0232325
0.0235575
0.0238502
0.0240901
0.0242598
0.024346
0.0243409
0.0242431
0.0240576
0.0237955
0.0234728
0.0231083
0.0227223
0.0223347
0.021963
0.021622
0.0213236
0.0210762
0.020889
0.0207648
0.0207175
0.0269757
0.0266818
0.0262694
0.0260077
0.025761
0.0255551
0.0253545
0.0251521
0.0249339
0.0246931
0.0244242
0.0241249
0.0237955
0.0234388
0.02306
0.0226666
0.0222681
0.0218761
0.0215031
0.0211628
0.0208688
0.0206341
0.0204703
0.0203863
0.0203882
0.020478
0.0206531
0.0209062
0.0212253
0.0215941
0.0219924
0.022397
0.0227833
0.023127
0.0234056
0.0236006
0.0236986
0.0236933
0.0235853
0.0233828
0.0231
0.0227559
0.0223721
0.0219707
0.0215726
0.0211955
0.0208553
0.0205616
0.0203299
0.0201542
0.0200752
0.0269249
0.0265968
0.0261398
0.0258543
0.0255852
0.0253591
0.0251348
0.0249033
0.0246485
0.0243624
0.0240386
0.0236747
0.0232707
0.0228298
0.022358
0.0218639
0.0213585
0.0208549
0.0203683
0.0199145
0.0195102
0.0191713
0.0189125
0.0187462
0.0186815
0.0187238
0.0188729
0.0191236
0.0194655
0.0198829
0.0203548
0.0208565
0.0213601
0.0218366
0.0222579
0.0225985
0.0228382
0.0229635
0.0229689
0.0228576
0.0226409
0.0223369
0.0219683
0.02156
0.021137
0.0207212
0.0203341
0.0199871
0.0197043
0.0194707
0.0193565
0.0267562
0.0263971
0.0258992
0.0255911
0.025299
0.0250501
0.0247976
0.0245306
0.0242308
0.0238893
0.0234987
0.0230564
0.0225626
0.0220208
0.0214377
0.020823
0.0201894
0.0195522
0.0189287
0.0183377
0.0177989
0.0173318
0.0169547
0.0166839
0.0165324
0.0165096
0.0166188
0.0168576
0.017218
0.0176856
0.0182397
0.0188541
0.0194979
0.0201374
0.0207377
0.0212657
0.0216919
0.0219938
0.0221572
0.0221781
0.0220628
0.021827
0.0214937
0.0210909
0.0206485
0.020194
0.0197559
0.0193497
0.019009
0.0187105
0.0185573
0.0264518
0.0260655
0.0255315
0.0252019
0.0248864
0.024612
0.0243264
0.0240171
0.0236636
0.023256
0.0227864
0.0222515
0.0216519
0.0209913
0.0202774
0.019521
0.0187367
0.0179417
0.017156
0.0164015
0.0157015
0.0150792
0.0145572
0.0141562
0.0138938
0.013784
0.0138347
0.0140472
0.0144167
0.0149313
0.0155712
0.0163098
0.0171137
0.0179446
0.0187608
0.01952
0.0201825
0.0207139
0.0210888
0.0212928
0.0213242
0.0211942
0.0209251
0.0205471
0.0200959
0.0196061
0.0191154
0.0186444
0.0182394
0.0178684
0.0176715
0.0259959
0.025587
0.0250223
0.0246727
0.0243334
0.0240304
0.0237068
0.0233482
0.0229322
0.0224478
0.0218863
0.0212445
0.0205227
0.0197252
0.0188604
0.0179406
0.016982
0.0160042
0.01503
0.0140846
0.013195
0.0123889
0.0116933
0.011134
0.0107337
0.0105114
0.0104808
0.0106479
0.0110117
0.0115637
0.0122867
0.0131545
0.0141324
0.0151782
0.0162437
0.0172773
0.0182273
0.0190458
0.0196927
0.0201399
0.0203742
0.0203987
0.0202325
0.0199073
0.0194647
0.0189477
0.0184052
0.0178654
0.0173899
0.0169378
0.0166919
0.0253757
0.0249494
0.02436
0.023992
0.0236283
0.0232939
0.0229273
0.0225123
0.022025
0.0214531
0.0207875
0.0200244
0.0191643
0.0182119
0.0171766
0.0160719
0.0149158
0.0137304
0.0125416
0.0113782
0.010271
0.00925238
0.00835437
0.00760795
0.00704155
0.00667954
0.0065419
0.00664019
0.00697795
0.00755155
0.00834708
0.00934055
0.0104974
0.011773
0.0131137
0.014459
0.015745
0.0169085
0.0178921
0.0186501
0.0191533
0.0193924
0.0193793
0.019145
0.0187366
0.0182063
0.0176167
0.0170059
0.0164541
0.0159118
0.0156107
0.0245815
0.0241435
0.0235363
0.0231515
0.0227633
0.0223944
0.02198
0.021502
0.0209347
0.0202653
0.0194837
0.0185859
0.0175724
0.0164484
0.0152239
0.0139142
0.0125392
0.0111235
0.00969606
0.00828947
0.00693895
0.0056814
0.00455414
0.00359357
0.00283383
0.00230505
0.00203362
0.00203714
0.00232447
0.00289747
0.00374699
0.00485272
0.0061821
0.00769013
0.00931975
0.0110033
0.0126652
0.0142266
0.0156108
0.0167508
0.0175963
0.0181201
0.0183221
0.0182284
0.0178895
0.0173673
0.0167402
0.0160586
0.0154258
0.0147835
0.0144201
0.0236079
0.0231644
0.0225466
0.022147
0.021734
0.021328
0.0208613
0.020314
0.0196593
0.0188831
0.017975
0.0169305
0.0157502
0.0144398
0.0130103
0.0114783
0.00986582
0.00820037
0.00651416
0.00484361
0.00322834
0.00171007
0.000331249
-0.000866322
-0.00184292
-0.00256274
-0.00299331
-0.00311083
-0.00290067
-0.00235506
-0.00147737
-0.000282786
0.0012002
0.00292874
0.00484514
0.00687722
0.00894018
0.0109404
0.0127814
0.0143722
0.0156366
0.0165232
0.0170129
0.017121
0.0168981
0.0164141
0.015765
0.0150165
0.0142993
0.0135469
0.0131137
0.0224539
0.0220114
0.0213905
0.0209782
0.0205408
0.0200955
0.0195726
0.0189509
0.0182021
0.0173116
0.0162682
0.0150673
0.0137094
0.0122009
0.0105538
0.00878624
0.00692261
0.00499315
0.00303358
0.00108431
-0.00081062
-0.00260477
-0.00425071
-0.00570155
-0.00691241
-0.00784214
-0.00845362
-0.00871622
-0.0086092
-0.0081199
-0.00724499
-0.00599344
-0.00438775
-0.00246598
-0.000283133
0.00208787
0.00455667
0.00701794
0.00935673
0.011457
0.0132132
0.0145433
0.0154011
0.0157834
0.0157341
0.0153285
0.0146806
0.0138731
0.0130705
0.012198
0.0116868
0.0211231
0.0206882
0.0200722
0.0196496
0.0191884
0.0187023
0.0181206
0.0174204
0.0165728
0.0155623
0.0143773
0.0130132
0.0114705
0.0097562
0.0078835
0.00587237
0.00374953
0.00154826
-0.000692156
-0.00292731
-0.00510879
-0.00718562
-0.00910578
-0.0108178
-0.0122723
-0.0134234
-0.0142306
-0.014657
-0.0146763
-0.0142716
-0.0134326
-0.0121616
-0.0104737
-0.00839975
-0.00598873
-0.00330995
-0.00045444
0.00246561
0.00532049
0.0079708
0.0102798
0.0121296
0.0134388
0.0141755
0.0143685
0.0140918
0.0134764
0.0126238
0.0117374
0.0107354
0.0101378
0.0196242
0.0192033
0.0186002
0.0181701
0.0176866
0.0171591
0.016517
0.015736
0.0147868
0.0136533
0.0123236
0.0107929
0.0090623
0.0071393
0.00503851
0.00278182
0.000398523
-0.00207499
-0.0045958
-0.0071155
-0.00958153
-0.0119387
-0.0141308
-0.0161025
-0.0178007
-0.0191762
-0.0201851
-0.0207868
-0.0209504
-0.0206545
-0.0198833
-0.0186321
-0.0169081
-0.0147332
-0.0121473
-0.00921198
-0.00601332
-0.00266419
0.00069697
0.00391186
0.00681408
0.00924691
0.0110863
0.0122611
0.0127731
0.0126864
0.012144
0.0112663
0.0103013
0.00916182
0.00846945
0.0179702
0.0175698
0.0169875
0.0165531
0.0160492
0.0154811
0.0147786
0.0139166
0.0128656
0.011609
0.0101349
0.00843854
0.00652145
0.00439216
0.00206671
-0.000430919
-0.00306876
-0.00580721
-0.00859972
-0.011394
-0.0141336
-0.0167596
-0.0192121
-0.0214327
-0.0233657
-0.0249593
-0.0261675
-0.0269476
-0.0272656
-0.0270966
-0.0264201
-0.0252256
-0.0235123
-0.0212924
-0.0185949
-0.0154698
-0.0119929
-0.00827112
-0.00444374
-0.000680734
0.00282675
0.00588405
0.00831956
0.0100127
0.0109248
0.0110972
0.0106774
0.00980173
0.00876794
0.00748477
0.00668959
0.0161787
0.0158048
0.0152508
0.0148158
0.0142947
0.0136878
0.0129269
0.011986
0.0108357
0.00945921
0.00784484
0.00598812
0.00389112
0.00156349
-0.000977084
-0.00370442
-0.00658379
-0.00957237
-0.0126201
-0.015671
-0.0186651
-0.02154
-0.0242331
-0.0266837
-0.028834
-0.0306311
-0.032028
-0.0329816
-0.033456
-0.0334235
-0.0328616
-0.0317546
-0.0300947
-0.027885
-0.0251423
-0.0219027
-0.0182279
-0.0142117
-0.00998636
-0.00572401
-0.00163212
0.00206171
0.00513757
0.00741752
0.00880923
0.00931532
0.00907576
0.00823673
0.00714881
0.00571825
0.00481294
0.014271
0.013929
0.0134106
0.0129789
0.0124445
0.0118025
0.0109872
0.00997198
0.0087279
0.00723841
0.005492
0.00348468
0.00121931
-0.00129321
-0.00403347
-0.00697302
-0.0100744
-0.0132916
-0.0165713
-0.0198541
-0.0230768
-0.0261742
-0.0290817
-0.0317365
-0.0340804
-0.0360599
-0.0376277
-0.0387426
-0.0393673
-0.0394729
-0.0390367
-0.0380393
-0.0364679
-0.0343169
-0.031592
-0.0283144
-0.0245286
-0.0203107
-0.0157776
-0.0110936
-0.00647158
-0.00216287
0.00156861
0.00448416
0.00642591
0.00734085
0.00734522
0.00658446
0.00546247
0.00388393
0.00286221
0.0122714
0.0119659
0.0114896
0.0110658
0.0105229
0.00985104
0.00898748
0.0079053
0.00657631
0.00498424
0.00311806
0.000974405
-0.00144294
-0.00412178
-0.00704094
-0.0101697
-0.013468
-0.016887
-0.02037
-0.0238548
-0.0272754
-0.0305645
-0.0336555
-0.036485
-0.0389943
-0.0411305
-0.042847
-0.0441044
-0.0448665
-0.0451048
-0.0447969
-0.0439218
-0.0424633
-0.0404097
-0.0377564
-0.0345107
-0.0306991
-0.0263765
-0.0216384
-0.016632
-0.0115635
-0.00669524
-0.00232594
0.00124718
0.00379314
0.00518684
0.00550164
0.00486682
0.00373626
0.00201267
0.000869586
0.0102062
0.00994087
0.00951239
0.00910134
0.00855601
0.00786107
0.00695771
0.00581868
0.00441681
0.00273622
0.000766513
-0.00149499
-0.00404353
-0.0068656
-0.00993834
-0.0132289
-0.0166949
-0.0202845
-0.0239387
-0.0275925
-0.0311776
-0.0346249
-0.0378668
-0.0408394
-0.0434842
-0.0457493
-0.0475897
-0.0489677
-0.0498498
-0.0502091
-0.0500242
-0.0492746
-0.0479426
-0.0460123
-0.0434715
-0.0403154
-0.0365532
-0.032218
-0.02738
-0.0221617
-0.0167511
-0.0114077
-0.00645141
-0.0022296
0.000951993
0.00288298
0.00357335
0.00311644
0.00200787
0.000145957
-0.00112191
0.00810272
0.00788037
0.00750442
0.00711116
0.00657017
0.00586081
0.00492836
0.00374542
0.0022859
0.00053436
-0.00151894
-0.00387599
-0.0065311
-0.00946958
-0.012667
-0.0160887
-0.0196901
-0.0234172
-0.0272084
-0.0309969
-0.0347123
-0.0382844
-0.0416446
-0.0447291
-0.0474798
-0.0498462
-0.0517849
-0.0532607
-0.054243
-0.0547073
-0.0546342
-0.0540052
-0.0528027
-0.051009
-0.0486068
-0.045582
-0.0419291
-0.0376604
-0.0328196
-0.0274998
-0.0218615
-0.0161479
-0.0106837
-0.00585306
-0.00203119
0.000478614
0.00160385
0.00137869
0.000327065
-0.00166269
-0.00305707
0.00598855
0.00581066
0.00549071
0.00512046
0.00459148
0.00387792
0.00292937
0.0017182
0.000219378
-0.00158224
-0.00369581
-0.00612278
-0.00885668
-0.0118818
-0.0151726
-0.0186927
-0.0223959
-0.0262262
-0.0301204
-0.0340096
-0.0378223
-0.0414871
-0.0449351
-0.0481023
-0.0509316
-0.0533736
-0.0553869
-0.0569382
-0.0580006
-0.058552
-0.0585757
-0.0580561
-0.0569772
-0.0553216
-0.0530696
-0.0502009
-0.0466984
-0.0425564
-0.0377939
-0.0324725
-0.0267193
-0.0207493
-0.0148764
-0.00950382
-0.00506453
-0.00195517
-0.00034594
-0.000286387
-0.00124282
-0.00334634
-0.00486734
0.00389011
0.00375692
0.00349509
0.00315302
0.0026444
0.00193845
0.000988993
-0.000232028
-0.00174885
-0.00357658
-0.00572409
-0.00819255
-0.010975
-0.0140552
-0.0174064
-0.0209915
-0.0247626
-0.0286626
-0.0326267
-0.0365847
-0.0404641
-0.0441927
-0.0477011
-0.0509256
-0.0538097
-0.056305
-0.0583717
-0.0599788
-0.0611022
-0.0617227
-0.0618262
-0.0614009
-0.0604333
-0.0589078
-0.0568046
-0.0541002
-0.0507698
-0.0467937
-0.0421688
-0.036927
-0.0311592
-0.0250442
-0.0188704
-0.013042
-0.00803261
-0.00432506
-0.00219612
-0.00180243
-0.00262337
-0.00482342
-0.00646961
0.00183186
0.00174226
0.0015391
0.00123022
0.000750905
6.58533e-05
-0.000867196
-0.00207707
-0.00358774
-0.00541477
-0.00756724
-0.0100465
-0.0128455
-0.0159478
-0.0193263
-0.022943
-0.0267494
-0.0306872
-0.0346906
-0.0386886
-0.0426076
-0.0463749
-0.0499207
-0.0531815
-0.0561009
-0.0586313
-0.0607345
-0.0623807
-0.0635484
-0.0642212
-0.0643878
-0.0640397
-0.0631667
-0.0617562
-0.05979
-0.057244
-0.0540892
-0.0502962
-0.0458444
-0.0407392
-0.0350363
-0.028874
-0.0225042
-0.016315
-0.0108007
-0.0065165
-0.00384703
-0.00307551
-0.00371976
-0.00599652
-0.00776522
-0.000164593
-0.000213153
-0.000358771
-0.000629791
-0.00107041
-0.00171986
-0.00261707
-0.00379223
-0.00526985
-0.00706672
-0.00919287
-0.0116504
-0.014433
-0.0175242
-0.0208971
-0.0245135
-0.0283243
-0.0322707
-0.0362862
-0.040299
-0.0442348
-0.0480203
-0.0515854
-0.054866
-0.057806
-0.0603582
-0.0624849
-0.0641576
-0.0653563
-0.0660671
-0.0662812
-0.065993
-0.065196
-0.0638806
-0.0620318
-0.059627
-0.0566358
-0.0530231
-0.0487558
-0.0438176
-0.0382325
-0.0320979
-0.0256232
-0.0191655
-0.01322
-0.00839606
-0.00517935
-0.00399317
-0.00441953
-0.00675111
-0.00863876
-0.00208126
-0.00209285
-0.00218389
-0.00241284
-0.002805
-0.00340272
-0.00424254
-0.00535684
-0.0067718
-0.0085066
-0.0105732
-0.0129753
-0.0157077
-0.0187551
-0.0220907
-0.0256767
-0.0294639
-0.0333931
-0.0373973
-0.0414041
-0.0453387
-0.0491267
-0.0526976
-0.0559868
-0.0589377
-0.0615028
-0.0636447
-0.0653353
-0.0665554
-0.0672929
-0.0675411
-0.0672966
-0.0665562
-0.0653139
-0.063558
-0.0612686
-0.0584164
-0.0549639
-0.0508702
-0.0461029
-0.0406592
-0.0345991
-0.0280867
-0.0214388
-0.015134
-0.0098147
-0.00605478
-0.0044237
-0.00459125
-0.00695417
-0.00895675
-0.00390436
-0.00388467
-0.00392613
-0.00410933
-0.00444287
-0.00497124
-0.00572984
-0.00675441
-0.00807445
-0.00971289
-0.0116849
-0.0139969
-0.0166457
-0.0196173
-0.0228861
-0.0264145
-0.0301533
-0.0340435
-0.0380174
-0.042002
-0.0459218
-0.0497015
-0.0532697
-0.0565608
-0.0595172
-0.062091
-0.0642439
-0.0659478
-0.0671836
-0.0679401
-0.0682116
-0.0679966
-0.0672945
-0.0661024
-0.0644119
-0.0622065
-0.0594593
-0.056133
-0.0521826
-0.047565
-0.0422569
-0.0362856
-0.0297725
-0.0229889
-0.0163833
-0.0106111
-0.00631704
-0.00421538
-0.00408292
-0.00645218
-0.00856565
-0.00562483
-0.00558136
-0.00558039
-0.0057147
-0.00597896
-0.00641857
-0.00706961
-0.0079727
-0.00916274
-0.0106683
-0.0125093
-0.0146962
-0.0172285
-0.0200941
-0.0232686
-0.0267152
-0.030385
-0.0342185
-0.0381476
-0.0420987
-0.0459951
-0.0497605
-0.053322
-0.0566128
-0.0595739
-0.062156
-0.0643198
-0.0660361
-0.0672852
-0.068056
-0.0683432
-0.068146
-0.0674657
-0.0663014
-0.0646476
-0.0624913
-0.0598085
-0.0565633
-0.0527097
-0.0481985
-0.0429915
-0.0370904
-0.0305784
-0.0236815
-0.0168096
-0.0106143
-0.00579246
-0.00319531
-0.0027197
-0.00506856
-0.00728922
-0.00723865
-0.00718096
-0.00714719
-0.00722987
-0.00741327
-0.00774241
-0.00825647
-0.00900303
-0.0100251
-0.011359
-0.0130315
-0.0150581
-0.017442
-0.0201736
-0.0232297
-0.0265743
-0.0301585
-0.0339224
-0.0377973
-0.0417082
-0.0455774
-0.0493269
-0.0528822
-0.0561747
-0.0591436
-0.0617375
-0.0639154
-0.0656466
-0.06691
-0.0676933
-0.0679911
-0.0678027
-0.0671295
-0.065972
-0.0643267
-0.0621827
-0.0595183
-0.0563006
-0.0524842
-0.0480165
-0.04285
-0.0369675
-0.030421
-0.0233948
-0.0162576
-0.00964555
-0.00428979
-0.0011672
-0.000300521
-0.00259961
-0.00492433
-0.00874722
-0.00868745
-0.0086333
-0.00866161
-0.00875097
-0.00894472
-0.0092885
-0.00983966
-0.0106525
-0.011774
-0.0132396
-0.0150714
-0.017277
-0.0198495
-0.0227671
-0.025994
-0.0294811
-0.0331676
-0.0369835
-0.0408525
-0.044695
-0.0484313
-0.0519849
-0.0552846
-0.0582675
-0.0608799
-0.0630783
-0.0648297
-0.0661111
-0.0669082
-0.0672143
-0.0670274
-0.0663484
-0.0651781
-0.0635134
-0.0613441
-0.0586503
-0.0554001
-0.0515492
-0.047045
-0.0418348
-0.0358876
-0.0292322
-0.0220179
-0.0145749
-0.00751739
-0.00159837
0.00209234
0.00340708
0.00119124
-0.00123488
-0.0101578
-0.0101114
-0.0100526
-0.0100231
-0.0100025
-0.0100315
-0.0101668
-0.0104792
-0.0110383
-0.0119049
-0.0131252
-0.0147291
-0.0167293
-0.0191215
-0.021885
-0.0249835
-0.028367
-0.0319733
-0.0357305
-0.0395604
-0.0433812
-0.0471109
-0.0506704
-0.0539861
-0.0569923
-0.0596324
-0.0618601
-0.0636395
-0.0649448
-0.0657591
-0.0660732
-0.065883
-0.0651873
-0.0639854
-0.0622732
-0.0600402
-0.0572666
-0.0539196
-0.0499554
-0.0453194
-0.0399574
-0.0338322
-0.0269546
-0.0194476
-0.0116092
-0.00403183
0.00251553
0.00684
0.00867484
0.0065823
0.00405758
-0.0114845
-0.0114715
-0.0114277
-0.0113348
-0.0111836
-0.0110115
-0.0108936
-0.0109186
-0.0111763
-0.0117442
-0.0126816
-0.0140273
-0.015799
-0.0179946