# vtk DataFile Version 2.0
insac_ib
ASCII
DATASET STRUCTURED_GRID
DIMENSIONS 51 51 1
POINTS 2601 float
0 0 0
0.02 0 0
0.04 0 0
0.06 0 0
0.08 0 0
0.1 0 0
0.12 0 0
0.14 0 0
0.16 0 0
0.18 0 0
0.2 0 0
0.22 0 0
0.24 0 0
0.26 0 0
0.28 0 0
0.3 0 0
0.32 0 0
0.34 0 0
0.36 0 0
0.38 0 0
0.4 0 0
0.42 0 0
0.44 0 0
0.46 0 0
0.48 0 0
0.5 0 0
0.52 0 0
0.54 0 0
0.56 0 0
0.58 0 0
0.6 0 0
0.62 0 0
0.64 0 0
0.66 0 0
0.68 0 0
0.7 0 0
0.72 0 0
0.74 0 0
0.76 0 0
0.78 0 0
0.8 0 0
0.82 0 0
0.84 0 0
0.86 0 0
0.88 0 0
0.9 0 0
0.92 0 0
0.94 0 0
0.96 0 0
0.98 0 0
1 0 0
0 0.02 0
0.02 0.02 0
0.04 0.02 0
0.06 0.02 0
0.08 0.02 0
0.1 0.02 0
0.12 0.02 0
0.14 0.02 0
0.16 0.02 0
0.18 0.02 0
0.2 0.02 0
0.22 0.02 0
0.24 0.02 0
0.26 0.02 0
0.28 0.02 0
0.3 0.02 0
0.32 0.02 0
0.34 0.02 0
0.36 0.02 0
0.38 0.02 0
0.4 0.02 0
0.42 0.02 0
0.44 0.02 0
0.46 0.02 0
0.48 0.02 0
0.5 0.02 0
0.52 0.02 0
0.54 0.02 0
0.56 0.02 0
0.58 0.02 0
0.6 0.02 0
0.62 0.02 0
0.64 0.02 0
0.66 0.02 0
0.68 0.02 0
0.7 0.02 0
0.72 0.02 0
0.74 0.02 0
0.76 0.02 0
0.78 0.02 0
0.8 0.02 0
0.82 0.02 0
0.84 0.02 0
0.86 0.02 0
0.88 0.02 0
0.9 0.02 0
0.92 0.02 0
0.94 0.02 0
0.96 0.02 0
0.98 0.02 0
1 0.02 0
0 0.04 0
0.02 0.04 0
0.04 0.04 0
0.06 0.04 0
0.08 0.04 0
0.1 0.04 0
0.12 0.04 0
0.14 0.04 0
0.16 0.04 0
0.18 0.04 0
0.2 0.04 0
0.22 0.04 0
0.24 0.04 0
0.26 0.04 0
0.28 0.04 0
0.3 0.04 0
0.32 0.04 0
0.34 0.04 0
0.36 0.04 0
0.38 0.04 0
0.4 0.04 0
0.42 0.04 0
0.44 0.04 0
0.46 0.04 0
0.48 0.04 0
0.5 0.04 0
0.52 0.04 0
0.54 0.04 0
0.56 0.04 0
0.58 0.04 0
0.6 0.04 0
0.62 0.04 0
0.64 0.04 0
0.66 0.04 0
0.68 0.04 0
0.7 0.04 0
0.72 0.04 0
0.74 0.04 0
0.76 0.04 0
0.78 0.04 0
0.8 0.04 0
0.82 0.04 0
0.84 0.04 0
0.86 0.04 0
0.88 0.04 0
0.9 0.04 0
0.92 0.04 0
0.94 0.04 0
0.96 0.04 0
0.98 0.04 0
1 0.04 0
0 0.06 0
0.02 0.06 0
0.04 0.06 0
0.06 0.06 0
0.08 0.06 0
0.1 0.06 0
0.12 0.06 0
0.14 0.06 0
0.16 0.06 0
0.18 0.06 0
0.2 0.06 0
0.22 0.06 0
0.24 0.06 0
0.26 0.06 0
0.28 0.06 0
0.3 0.06 0
0.32 0.06 0
0.34 0.06 0
0.36 0.06 0
0.38 0.06 0
0.4 0.06 0
0.42 0.06 0
0.44 0.06 0
0.46 0.06 0
0.48 0.06 0
0.5 0.06 0
0.52 0.06 0
0.54 0.06 0
0.56 0.06 0
0.58 0.06 0
0.6 0.06 0
0.62 0.06 0
0.64 0.06 0
0.66 0.06 0
0.68 0.06 0
0.7 0.06 0
0.72 0.06 0
0.74 0.06 0
0.76 0.06 0
0.78 0.06 0
0.8 0.06 0
0.82 0.06 0
0.84 0.06 0
0.86 0.06 0
0.88 0.06 0
0.9 0.06 0
0.92 0.06 0
0.94 0.06 0
0.96 0.06 0
0.98 0.06 0
1 0.06 0
0 0.08 0
0.02 0.08 0
0.04 0.08 0
0.06 0.08 0
0.08 0.08 0
0.1 0.08 0
0.12 0.08 0
0.14 0.08 0
0.16 0.08 0
0.18 0.08 0
0.2 0.08 0
0.22 0.08 0
0.24 0.08 0
0.26 0.08 0
0.28 0.08 0
0.3 0.08 0
0.32 0.08 0
0.34 0.08 0
0.36 0.08 0
0.38 0.08 0
0.4 0.08 0
0.42 0.08 0
0.44 0.08 0
0.46 0.08 0
0.48 0.08 0
0.5 0.08 0
0.52 0.08 0
0.54 0.08 0
0.56 0.08 0
0.58 0.08 0
0.6 0.08 0
0.62 0.08 0
0.64 0.08 0
0.66 0.08 0
0.68 0.08 0
0.7 0.08 0
0.72 0.08 0
0.74 0.08 0
0.76 0.08 0
0.78 0.08 0
0.8 0.08 0
0.82 0.08 0
0.84 0.08 0
0.86 0.08 0
0.88 0.08 0
0.9 0.08 0
0.92 0.08 0
0.94 0.08 0
0.96 0.08 0
0.98 0.08 0
1 0.08 0
0 0.1 0
0.02 0.1 0
0.04 0.1 0
0.06 0.1 0
0.08 0.1 0
0.1 0.1 0
0.12 0.1 0
0.14 0.1 0
0.16 0.1 0
0.18 0.1 0
0.2 0.1 0
0.22 0.1 0
0.24 0.1 0
0.26 0.1 0
0.28 0.1 0
0.3 0.1 0
0.32 0.1 0
0.34 0.1 0
0.36 0.1 0
0.38 0.1 0
0.4 0.1 0
0.42 0.1 0
0.44 0.1 0
0.46 0.1 0
0.48 0.1 0
0.5 0.1 0
0.52 0.1 0
0.54 0.1 0
0.56 0.1 0
0.58 0.1 0
0.6 0.1 0
0.62 0.1 0
0.64 0.1 0
0.66 0.1 0
0.68 0.1 0
0.7 0.1 0
0.72 0.1 0
0.74 0.1 0
0.76 0.1 0
0.78 0.1 0
0.8 0.1 0
0.82 0.1 0
0.84 0.1 0
0.86 0.1 0
0.88 0.1 0
0.9 0.1 0
0.92 0.1 0
0.94 0.1 0
0.96 0.1 0
0.98 0.1 0
1 0.1 0
0 0.12 0
0.02 0.12 0
0.04 0.12 0
0.06 0.12 0
0.08 0.12 0
0.1 0.12 0
0.12 0.12 0
0.14 0.12 0
0.16 0.12 0
0.18 0.12 0
0.2 0.12 0
0.22 0.12 0
0.24 0.12 0
0.26 0.12 0
0.28 0.12 0
0.3 0.12 0
0.32 0.12 0
0.34 0.12 0
0.36 0.12 0
0.38 0.12 0
0.4 0.12 0
0.42 0.12 0
0.44 0.12 0
0.46 0.12 0
0.48 0.12 0
0.5 0.12 0
0.52 0.12 0
0.54 0.12 0
0.56 0.12 0
0.58 0.12 0
0.6 0.12 0
0.62 0.12 0
0.64 0.12 0
0.66 0.12 0
0.68 0.12 0
0.7 0.12 0
0.72 0.12 0
0.74 0.12 0
0.76 0.12 0
0.78 0.12 0
0.8 0.12 0
0.82 0.12 0
0.84 0.12 0
0.86 0.12 0
0.88 0.12 0
0.9 0.12 0
0.92 0.12 0
0.94 0.12 0
0.96 0.12 0
0.98 0.12 0
1 0.12 0
0 0.14 0
0.02 0.14 0
0.04 0.14 0
0.06 0.14 0
0.08 0.14 0
0.1 0.14 0
0.12 0.14 0
0.14 0.14 0
0.16 0.14 0
0.18 0.14 0
0.2 0.14 0
0.22 0.14 0
0.24 0.14 0
0.26 0.14 0
0.28 0.14 0
0.3 0.14 0
0.32 0.14 0
0.34 0.14 0
0.36 0.14 0
0.38 0.14 0
0.4 0.14 0
0.42 0.14 0
0.44 0.14 0
0.46 0.14 0
0.48 0.14 0
0.5 0.14 0
0.52 0.14 0
0.54 0.14 0
0.56 0.14 0
0.58 0.14 0
0.6 0.14 0
0.62 0.14 0
0.64 0.14 0
0.66 0.14 0
0.68 0.14 0
0.7 0.14 0
0.72 0.14 0
0.74 0.14 0
0.76 0.14 0
0.78 0.14 0
0.8 0.14 0
0.82 0.14 0
0.84 0.14 0
0.86 0.14 0
0.88 0.14 0
0.9 0.14 0
0.92 0.14 0
0.94 0.14 0
0.96 0.14 0
0.98 0.14 0
1 0.14 0
0 0.16 0
0.02 0.16 0
0.04 0.16 0
0.06 0.16 0
0.08 0.16 0
0.1 0.16 0
0.12 0.16 0
0.14 0.16 0
0.16 0.16 0
0.18 0.16 0
0.2 0.16 0
0.22 0.16 0
0.24 0.16 0
0.26 0.16 0
0.28 0.16 0
0.3 0.16 0
0.32 0.16 0
0.34 0.16 0
0.36 0.16 0
0.38 0.16 0
0.4 0.16 0
0.42 0.16 0
0.44 0.16 0
0.46 0.16 0
0.48 0.16 0
0.5 0.16 0
0.52 0.16 0
0.54 0.16 0
0.56 0.16 0
0.58 0.16 0
0.6 0.16 0
0.62 0.16 0
0.64 0.16 0
0.66 0.16 0
0.68 0.16 0
0.7 0.16 0
0.72 0.16 0
0.74 0.16 0
0.76 0.16 0
0.78 0.16 0
0.8 0.16 0
0.82 0.16 0
0.84 0.16 0
0.86 0.16 0
0.88 0.16 0
0.9 0.16 0
0.92 0.16 0
0.94 0.16 0
0.96 0.16 0
0.98 0.16 0
1 0.16 0
0 0.18 0
0.02 0.18 0
0.04 0.18 0
0.06 0.18 0
0.08 0.18 0
0.1 0.18 0
0.12 0.18 0
0.14 0.18 0
0.16 0.18 0
0.18 0.18 0
0.2 0.18 0
0.22 0.18 0
0.24 0.18 0
0.26 0.18 0
0.28 0.18 0
0.3 0.18 0
0.32 0.18 0
0.34 0.18 0
0.36 0.18 0
0.38 0.18 0
0.4 0.18 0
0.42 0.18 0
0.44 0.18 0
0.46 0.18 0
0.48 0.18 0
0.5 0.18 0
0.52 0.18 0
0.54 0.18 0
0.56 0.18 0
0.58 0.18 0
0.6 0.18 0
0.62 0.18 0
0.64 0.18 0
0.66 0.18 0
0.68 0.18 0
0.7 0.18 0
0.72 0.18 0
0.74 0.18 0
0.76 0.18 0
0.78 0.18 0
0.8 0.18 0
0.82 0.18 0
0.84 0.18 0
0.86 0.18 0
0.88 0.18 0
0.9 0.18 0
0.92 0.18 0
0.94 0.18 0
0.96 0.18 0
0.98 0.18 0
1 0.18 0
0 0.2 0
0.02 0.2 0
0.04 0.2 0
0.06 0.2 0
0.08 0.2 0
0.1 0.2 0
0.12 0.2 0
0.14 0.2 0
0.16 0.2 0
0.18 0.2 0
0.2 0.2 0
0.22 0.2 0
0.24 0.2 0
0.26 0.2 0
0.28 0.2 0
0.3 0.2 0
0.32 0.2 0
0.34 0.2 0
0.36 0.2 0
0.38 0.2 0
0.4 0.2 0
0.42 0.2 0
0.44 0.2 0
0.46 0.2 0
0.48 0.2 0
0.5 0.2 0
0.52 0.2 0
0.54 0.2 0
0.56 0.2 0
0.58 0.2 0
0.6 0.2 0
0.62 0.2 0
0.64 0.2 0
0.66 0.2 0
0.68 0.2 0
0.7 0.2 0
0.72 0.2 0
0.74 0.2 0
0.76 0.2 0
0.78 0.2 0
0.8 0.2 0
0.82 0.2 0
0.84 0.2 0
0.86 0.2 0
0.88 0.2 0
0.9 0.2 0
0.92 0.2 0
0.94 0.2 0
0.96 0.2 0
0.98 0.2 0
1 0.2 0
0 0.22 0
0.02 0.22 0
0.04 0.22 0
0.06 0.22 0
0.08 0.22 0
0.1 0.22 0
0.12 0.22 0
0.14 0.22 0
0.16 0.22 0
0.18 0.22 0
0.2 0.22 0
0.22 0.22 0
0.24 0.22 0
0.26 0.22 0
0.28 0.22 0
0.3 0.22 0
0.32 0.22 0
0.34 0.22 0
0.36 0.22 0
0.38 0.22 0
0.4 0.22 0
0.42 0.22 0
0.44 0.22 0
0.46 0.22 0
0.48 0.22 0
0.5 0.22 0
0.52 0.22 0
0.54 0.22 0
0.56 0.22 0
0.58 0.22 0
0.6 0.22 0
0.62 0.22 0
0.64 0.22 0
0.66 0.22 0
0.68 0.22 0
0.7 0.22 0
0.72 0.22 0
0.74 0.22 0
0.76 0.22 0
0.78 0.22 0
0.8 0.22 0
0.82 0.22 0
0.84 0.22 0
0.86 0.22 0
0.88 0.22 0
0.9 0.22 0
0.92 0.22 0
0.94 0.22 0
0.96 0.22 0
0.98 0.22 0
1 0.22 0
0 0.24 0
0.02 0.24 0
0.04 0.24 0
0.06 0.24 0
0.08 0.24 0
0.1 0.24 0
0.12 0.24 0
0.14 0.24 0
0.16 0.24 0
0.18 0.24 0
0.2 0.24 0
0.22 0.24 0
0.24 0.24 0
0.26 0.24 0
0.28 0.24 0
0.3 0.24 0
0.32 0.24 0
0.34 0.24 0
0.36 0.24 0
0.38 0.24 0
0.4 0.24 0
0.42 0.24 0
0.44 0.24 0
0.46 0.24 0
0.48 0.24 0
0.5 0.24 0
0.52 0.24 0
0.54 0.24 0
0.56 0.24 0
0.58 0.24 0
0.6 0.24 0
0.62 0.24 0
0.64 0.24 0
0.66 0.24 0
0.68 0.24 0
0.7 0.24 0
0.72 0.24 0
0.74 0.24 0
0.76 0.24 0
0.78 0.24 0
0.8 0.24 0
0.82 0.24 0
0.84 0.24 0
0.86 0.24 0
0.88 0.24 0
0.9 0.24 0
0.92 0.24 0
0.94 0.24 0
0.96 0.24 0
0.98 0.24 0
1 0.24 0
0 0.26 0
0.02 0.26 0
0.04 0.26 0
0.06 0.26 0
0.08 0.26 0
0.1 0.26 0
0.12 0.26 0
0.14 0.26 0
0.16 0.26 0
0.18 0.26 0
0.2 0.26 0
0.22 0.26 0
0.24 0.26 0
0.26 0.26 0
0.28 0.26 0
0.3 0.26 0
0.32 0.26 0
0.34 0.26 0
0.36 0.26 0
0.38 0.26 0
0.4 0.26 0
0.42 0.26 0
0.44 0.26 0
0.46 0.26 0
0.48 0.26 0
0.5 0.26 0
0.52 0.26 0
0.54 0.26 0
0.56 0.26 0
0.58 0.26 0
0.6 0.26 0
0.62 0.26 0
0.64 0.26 0
0.66 0.26 0
0.68 0.26 0
0.7 0.26 0
0.72 0.26 0
0.74 0.26 0
0.76 0.26 0
0.78 0.26 0
0.8 0.26 0
0.82 0.26 0
0.84 0.26 0
0.86 0.26 0
0.88 0.26 0
0.9 0.26 0
0.92 0.26 0
0.94 0.26 0
0.96 0.26 0
0.98 0.26 0
1 0.26 0
0 0.28 0
0.02 0.28 0
0.04 0.28 0
0.06 0.28 0
0.08 0.28 0
0.1 0.28 0
0.12 0.28 0
0.14 0.28 0
0.16 0.28 0
0.18 0.28 0
0.2 0.28 0
0.22 0.28 0
0.24 0.28 0
0.26 0.28 0
0.28 0.28 0
0.3 0.28 0
0.32 0.28 0
0.34 0.28 0
0.36 0.28 0
0.38 0.28 0
0.4 0.28 0
0.42 0.28 0
0.44 0.28 0
0.46 0.28 0
0.48 0.28 0
0.5 0.28 0
0.52 0.28 0
0.54 0.28 0
0.56 0.28 0
0.58 0.28 0
0.6 0.28 0
0.62 0.28 0
0.64 0.28 0
0.66 0.28 0
0.68 0.28 0
0.7 0.28 0
0.72 0.28 0
0.74 0.28 0
0.76 0.28 0
0.78 0.28 0
0.8 0.28 0
0.82 0.28 0
0.84 0.28 0
0.86 0.28 0
0.88 0.28 0
0.9 0.28 0
0.92 0.28 0
0.94 0.28 0
0.96 0.28 0
0.98 0.28 0
1 0.28 0
0 0.3 0
0.02 0.3 0
0.04 0.3 0
0.06 0.3 0
0.08 0.3 0
0.1 0.3 0
0.12 0.3 0
0.14 0.3 0
0.16 0.3 0
0.18 0.3 0
0.2 0.3 0
0.22 0.3 0
0.24 0.3 0
0.26 0.3 0
0.28 0.3 0
0.3 0.3 0
0.32 0.3 0
0.34 0.3 0
0.36 0.3 0
0.38 0.3 0
0.4 0.3 0
0.42 0.3 0
0.44 0.3 0
0.46 0.3 0
0.48 0.3 0
0.5 0.3 0
0.52 0.3 0
0.54 0.3 0
0.56 0.3 0
0.58 0.3 0
0.6 0.3 0
0.62 0.3 0
0.64 0.3 0
0.66 0.3 0
0.68 0.3 0
0.7 0.3 0
0.72 0.3 0
0.74 0.3 0
0.76 0.3 0
0.78 0.3 0
0.8 0.3 0
0.82 0.3 0
0.84 0.3 0
0.86 0.3 0
0.88 0.3 0
0.9 0.3 0
0.92 0.3 0
0.94 0.3 0
0.96 0.3 0
0.98 0.3 0
1 0.3 0
0 0.32 0
0.02 0.32 0
0.04 0.32 0
0.06 0.32 0
0.08 0.32 0
0.1 0.32 0
0.12 0.32 0
0.14 0.32 0
0.16 0.32 0
0.18 0.32 0
0.2 0.32 0
0.22 0.32 0
0.24 0.32 0
0.26 0.32 0
0.28 0.32 0
0.3 0.32 0
0.32 0.32 0
0.34 0.32 0
0.36 0.32 0
0.38 0.32 0
0.4 0.32 0
0.42 0.32 0
0.44 0.32 0
0.46 0.32 0
0.48 0.32 0
0.5 0.32 0
0.52 0.32 0
0.54 0.32 0
0.56 0.32 0
0.58 0.32 0
0.6 0.32 0
0.62 0.32 0
0.64 0.32 0
0.66 0.32 0
0.68 0.32 0
0.7 0.32 0
0.72 0.32 0
0.74 0.32 0
0.76 0.32 0
0.78 0.32 0
0.8 0.32 0
0.82 0.32 0
0.84 0.32 0
0.86 0.32 0
0.88 0.32 0
0.9 0.32 0
0.92 0.32 0
0.94 0.32 0
0.96 0.32 0
0.98 0.32 0
1 0.32 0
0 0.34 0
0.02 0.34 0
0.04 0.34 0
0.06 0.34 0
[...]
POINT_DATA 2601
SCALARS pressure float 1
LOOKUP_TABLE default
0.0278022
0.0277557
0.0276324
0.0274664
0.0272977
0.0271555
0.0270536
0.0269994
0.0269934
0.0270339
0.0271168
0.027237
0.0273892
0.0275672
0.0277649
0.0279758
0.0281936
0.028412
0.0286253
0.0288285
0.0290172
0.0291878
0.0293376
0.0294644
0.0295666
0.0296428
0.0296917
0.0297122
0.0297032
0.0296638
0.0295933
0.0294916
0.0293588
0.0291961
0.0290054
0.0287899
0.0285535
0.0283013
0.0280392
0.0277739
0.0275129
0.0272637
0.0270341
0.0268317
0.0266635
0.026536
0.0264529
0.0264171
0.0264208
0.0264581
0.0264861
0.0278488
0.0278015
0.0276886
0.0275458
0.0274005
0.0272778
0.0271887
0.0271403
0.0271337
0.0271679
0.0272399
0.0273458
0.0274812
0.0276408
0.0278193
0.0280109
0.0282098
0.0284104
0.0286073
0.0287956
0.0289711
0.0291302
0.0292701
0.0293885
0.0294834
0.0295533
0.029597
0.0296132
0.0296009
0.0295593
0.0294879
0.0293866
0.029256
0.0290972
0.0289126
0.0287049
0.0284784
0.0282378
0.0279888
0.0277378
0.0274917
0.0272573
0.0270418
0.026852
0.0266938
0.026573
0.0264922
0.0264543
0.0264519
0.0264852
0.0265135
0.0279776
0.0279149
0.0277969
0.0276756
0.0275544
0.0274542
0.0273804
0.027339
0.0273308
0.0273559
0.0274126
0.0274984
0.02761
0.0277437
0.0278951
0.0280596
0.0282322
0.0284079
0.0285818
0.0287493
0.0289064
0.0290493
0.0291751
0.0292812
0.0293657
0.0294266
0.0294627
0.0294726
0.0294554
0.0294105
0.0293374
0.0292364
0.0291083
0.0289544
0.0287772
0.0285796
0.0283656
0.02814
0.027908
0.0276755
0.0274486
0.0272337
0.0270366
0.0268631
0.0267182
0.0266062
0.026529
0.02649
0.0264821
0.0265164
0.0265498
0.0281603
0.0280645
0.0279105
0.0277833
0.0276619
0.0275672
0.0274978
0.0274583
0.027448
0.027467
0.0275139
0.027587
0.0276839
0.0278015
0.0279365
0.0280847
0.0282417
0.0284027
0.028563
0.0287182
0.0288641
0.0289971
0.029114
0.0292123
0.0292898
0.0293448
0.0293758
0.0293814
0.0293608
0.0293133
0.0292387
0.0291372
0.0290096
0.0288574
0.0286831
0.0284898
0.0282813
0.0280623
0.0278379
0.0276139
0.0273961
0.0271901
0.0270017
0.0268359
0.026697
0.0265893
0.0265143
0.0264765
0.0264692
0.0265113
0.0265526
0.028358
0.0282223
0.0280214
0.0278798
0.027751
0.0276563
0.0275876
0.0275478
0.0275344
0.0275473
0.0275853
0.0276472
0.0277315
0.0278359
0.0279576
0.028093
0.0282379
0.0283877
0.0285379
0.0286837
0.0288211
0.0289462
0.0290559
0.0291476
0.0292192
0.0292688
0.0292951
0.0292968
0.0292729
0.0292229
0.0291465
0.029044
0.0289162
0.0287646
0.0285918
0.0284006
0.0281952
0.02798
0.0277602
0.0275414
0.027329
0.0271286
0.0269453
0.026784
0.0266486
0.0265428
0.0264683
0.0264306
0.0264229
0.0264693
0.0265153
0.0285366
0.028357
0.0281018
0.0279381
0.0277941
0.0276933
0.0276208
0.027578
0.0275606
0.0275681
0.0275994
0.0276538
0.0277302
0.0278271
0.0279418
0.0280712
0.028211
0.0283565
0.0285029
0.0286452
0.0287791
0.0289005
0.0290064
0.0290942
0.0291618
0.0292076
0.0292303
0.0292289
0.0292023
0.0291501
0.0290719
0.028968
0.0288391
0.0286867
0.0285132
0.0283216
0.0281158
0.0279005
0.0276807
0.027462
0.0272498
0.0270496
0.0268664
0.0267047
0.0265683
0.026461
0.0263844
0.0263444
0.0263346
0.0263813
0.0264285
0.0286693
0.0284443
0.0281318
0.027943
0.0277806
0.0276708
0.0275921
0.0275446
0.0275227
0.0275254
0.0275517
0.0276015
0.0276743
0.0277687
0.0278825
0.0280122
0.0281536
0.0283015
0.0284506
0.0285951
0.0287303
0.0288521
0.0289572
0.0290432
0.0291084
0.0291514
0.0291712
0.029167
0.029138
0.0290837
0.0290037
0.0288982
0.0287678
0.0286139
0.0284387
0.0282451
0.028037
0.027819
0.0275962
0.0273741
0.0271584
0.0269544
0.0267671
0.0266011
0.02646
0.0263476
0.0262656
0.0262201
0.0262053
0.0262472
0.0262919
0.0287294
0.0284584
0.0280876
0.027872
0.0276892
0.0275684
0.0274818
0.0274285
0.0274017
0.0274006
0.0274243
0.0274734
0.0275476
0.027646
0.0277663
0.0279047
0.0280563
0.0282151
0.0283749
0.0285289
0.0286718
0.0287988
0.0289066
0.0289934
0.0290576
0.0290987
0.029116
0.0291093
0.0290779
0.0290215
0.0289397
0.0288326
0.0287005
0.0285448
0.0283671
0.0281705
0.0279585
0.0277357
0.0275072
0.0272787
0.0270558
0.0268441
0.0266486
0.026474
0.026324
0.0262027
0.0261116
0.0260569
0.0260337
0.0260662
0.0261052
0.0286916
0.0283748
0.0279457
0.0277033
0.0274996
0.027367
0.0272713
0.0272117
0.0271802
0.0271765
0.0272006
0.0272534
0.0273354
0.0274454
0.0275809
0.0277377
0.0279097
0.0280898
0.0282703
0.0284425
0.0286003
0.028738
0.0288524
0.0289422
0.0290065
0.029046
0.0290606
0.0290508
0.0290165
0.0289576
0.0288738
0.028765
0.0286314
0.0284739
0.0282939
0.0280939
0.0278774
0.0276488
0.027413
0.0271757
0.0269427
0.0267198
0.0265123
0.026325
0.0261621
0.0260274
0.0259232
0.0258553
0.02582
0.0258388
0.0258695
0.0285297
0.0281675
0.0276811
0.0274125
0.0271879
0.0270429
0.0269375
0.0268709
0.026835
0.0268304
0.0268584
0.0269204
0.0270176
0.0271488
0.0273104
0.0274976
0.027703
0.0279174
0.0281315
0.0283333
0.0285152
0.0286705
0.0287955
0.0288906
0.0289554
0.0289925
0.029003
0.0289886
0.0289498
0.0288873
0.0288007
0.02869
0.0285551
0.0283962
0.0282145
0.0280118
0.0277911
0.0275564
0.0273124
0.0270648
0.0268196
0.0265825
0.0263594
0.0261554
0.0259751
0.0258227
0.0257009
0.0256154
0.0255641
0.0255651
0.0255851
0.0282162
0.0278099
0.027268
0.0269742
0.0267292
0.0265713
0.0264555
0.0263814
0.0263418
0.0263388
0.0263757
0.0264547
0.0265772
0.0267415
0.0269427
0.027175
0.0274292
0.0276938
0.0279575
0.0282026
0.0284198
0.0286006
0.0287402
0.0288419
0.0289061
0.0289385
0.0289415
0.0289191
0.0288729
0.0288042
0.0287132
0.0285999
0.0284636
0.0283043
0.0281221
0.0279182
0.0276947
0.027455
0.0272033
0.026945
0.0266861
0.0264326
0.0261906
0.025966
0.0257639
0.0255889
0.0254449
0.0253371
0.0252656
0.0252448
0.0252518
0.0277224
0.0272741
0.0266796
0.026362
0.0260968
0.025925
0.025797
0.0257142
0.0256708
0.0256715
0.025723
0.0258272
0.0259868
0.0261985
0.0264552
0.0267508
0.0270736
0.0274096
0.0277455
0.0280531
0.028321
0.0285371
0.0286952
0.0288038
0.0288638
0.0288864
0.0288759
0.0288394
0.02878
0.0287007
0.0286021
0.0284843
0.0283465
0.0281876
0.028007
0.0278044
0.027581
0.0273388
0.0270815
0.0268135
0.0265408
0.0262695
0.0260061
0.0257572
0.0255288
0.0253263
0.0251548
0.0250196
0.0249234
0.0248766
0.0248683
0.0270192
0.0265321
0.0258892
0.0255492
0.0252638
0.0250764
0.0249344
0.0248415
0.0247961
0.0248058
0.0248832
0.0250285
0.025245
0.0255258
0.025858
0.0262374
0.0266492
0.0270782
0.0275115
0.027902
0.0282369
0.0284986
0.0286763
0.0287892
0.0288371
0.0288407
0.028806
0.0287453
0.0286636
0.0285661
0.0284545
0.028329
0.0281885
0.0280311
0.0278546
0.0276574
0.0274386
0.0271987
0.0269397
0.0266652
0.0263803
0.0260912
0.0258049
0.0255286
0.0252695
0.0250344
0.0248298
0.0246616
0.0245357
0.0244581
0.024432
0.0260773
0.0255563
0.0248705
0.0245095
0.0242028
0.0239965
0.023836
0.0237289
0.0236799
0.0237004
0.0238124
0.02401
0.0242988
0.0246673
0.0250942
0.0255812
0.0261102
0.0266675
0.0272456
0.0277567
0.0281868
0.02851
0.0287061
0.028817
0.0288387
0.0288077
0.0287319
0.0286311
0.028513
0.0283858
0.0282523
0.0281136
0.0279682
0.027813
0.0276442
0.0274578
0.0272504
0.02702
0.0267663
0.0264911
0.0261983
0.0258935
0.0255841
0.0252783
0.0249848
0.0247118
0.0244683
0.0242609
0.0240998
0.023986
0.0239391
0.0248693
0.0243208
0.0235998
0.0232189
0.0228895
0.0226598
0.0224764
0.0223528
0.0223057
0.0223521
0.0225342
0.0228314
0.0232515
0.0237623
0.0243159
0.0249327
0.0255899
0.0262857
0.0270347
0.0276805
0.0282216
0.0286158
0.0288169
0.0289115
0.0288824
0.0287926
0.0286506
0.0284867
0.0283118
0.028138
0.0279701
0.0278099
0.0276557
0.0275031
0.0273461
0.0271778
0.0269914
0.0267812
0.0265436
0.0262774
0.0259843
0.0256691
0.025339
0.0250031
0.024672
0.0243563
0.0240678
0.0238144
0.0236117
0.0234554
0.0233842
0.0233711
0.0228038
0.0220568
0.0216568
0.0213014
0.0210408
0.0208253
0.0206758
0.020626
0.0206955
0.0209597
0.021352
0.0218858
0.0225286
0.0232025
0.0239632
0.0247792
0.0256854
0.0267639
0.0276623
0.028379
0.0288742
0.0290538
0.029107
0.0289863
0.0288005
0.0285555
0.028296
0.0280361
0.0277926
0.0275726
0.027379
0.0272098
0.0270594
0.0269191
0.0267783
0.0266258
0.0264509
0.026245
0.0260026
0.0257221
0.025406
0.025061
0.0246971
0.0243272
0.0239644
0.0236247
0.023318
0.0230666
0.0228604
0.0227606
0.0215641
0.0209886
0.0202273
0.0198087
0.0194229
0.0191222
0.018865
0.0186839
0.0186449
0.0187776
0.0192458
0.0199174
0.0208537
0.0218811
0.0227559
0.023676
0.0245874
0.0256053
0.026902
0.0278919
0.0287511
0.0293519
0.0294437
0.0294183
0.0291489
0.028819
0.0284244
0.0280284
0.0276481
0.0273058
0.0270109
0.0267682
0.0265757
0.0264262
0.0263082
0.0262066
0.0261046
0.0259852
0.0258329
0.025636
0.0253874
0.0250862
0.0247374
0.0243515
0.0239438
0.023531
0.0231343
0.0227666
0.0224585
0.0221935
0.0220599
0.0194387
0.0188677
0.0181058
0.0176691
0.0172481
0.0168963
0.0165844
0.0163583
0.0163288
0.016516
0.0172265
0.0180287
0.0188732
0.0198462
0.0207158
0.0217147
0.0227006
0.0240168
0.0265194
0.0283848
0.0295325
0.0302618
0.0301002
0.0299072
0.029386
0.0288356
0.0282267
0.0276407
0.027096
0.0266188
0.0262215
0.02591
0.0256829
0.0255317
0.0254419
0.0253934
0.0253629
0.0253251
0.0252557
0.0251342
0.0249457
0.0246833
0.024349
0.0239528
0.0235125
0.0230492
0.0225907
0.0221539
0.0217804
0.0214464
0.0212728
0.0169956
0.0164432
0.0156957
0.0152406
0.0147767
0.014357
0.0139665
0.0136653
0.0136288
0.013879
0.0150837
0.0166364
0.0195097
0.0223114
0.0233879
0.0244559
0.025233
0.0266067
0.0284437
0.0288718
0.0302895
0.0314134
0.0308227
0.030441
0.0295911
0.0287593
0.0278806
0.0270538
0.0263014
0.0256518
0.025122
0.0247194
0.0244443
0.0242875
0.0242319
0.0242524
0.0243181
0.0243942
0.0244453
0.0244389
0.0243492
0.0241604
0.0238686
0.0234819
0.0230203
0.0225097
0.0219864
0.021473
0.0210246
0.0206096
0.0203883
0.0142507
0.0137321
0.0130155
0.0125447
0.0120361
0.011543
0.011071
0.0107043
0.0107291
0.0111742
0.0137257
0.015908
0.0147244
0.0139995
0.0149794
0.0159595
0.0158962
0.0159817
0.0262106
0.0336909
0.033725
0.0341103
0.0320862
0.0311695
0.0297742
0.0285319
0.0273063
0.026177
0.0251708
0.0243094
0.0236155
0.0230976
0.0227591
0.0225909
0.0225747
0.0226807
0.0228705
0.0230984
0.0233156
0.0234747
0.0235351
0.0234676
0.0232589
0.0229124
0.0224492
0.0219002
0.0213123
0.0207156
0.0201827
0.0196729
0.0193951
0.0112355
0.0107646
0.0100951
0.00961225
0.00905682
0.00847796
0.00788688
0.00736446
0.00717102
0.00723256
0.00866745
0.00877076
0.00402745
0.000565397
0.000762296
0.00117112
0.00086254
0.000521665
0.0111023
0.0215359
0.0309929
0.0366385
0.03261
0.0314038
0.0295462
0.0278882
0.0263185
0.0248614
0.0235768
0.022475
0.0215912
0.0209353
0.0205174
0.0203306
0.0203571
0.0205643
0.0209068
0.0213279
0.0217638
0.022149
0.0224236
0.02254
0.0224702
0.0222086
0.021775
0.021205
0.0205576
0.0198729
0.0192459
0.018626
0.0182814
0.00799514
0.00758368
0.00697552
0.0064874
0.00589115
0.00523349
0.00452459
0.00384309
0.00334984
0.00280814
0.00223823
0.00124158
0.000280916
6.0445e-05
0
0
0
0.000121247
0.000440428
0.00259869
0.0251962
0.0399231
0.0330215
0.031032
0.0288073
0.0266637
0.0247699
0.0229698
0.0213958
0.0200337
0.0189397
0.018126
0.0176126
0.0173975
0.0174669
0.0177874
0.0183089
0.0189646
0.0196751
0.0203546
0.0209193
0.0212975
0.0214394
0.0213244
0.0209664
0.0204037
0.0197094
0.0189356
0.0182058
0.0174591
0.0170359
0.00459044
0.00424782
0.0037169
0.00324337
0.00264154
0.00197579
0.00128734
0.000739106
0.000664245
0.000526994
0.000221853
9.40223e-05
0
0
0
0
0
0
0
0.000278974
0.0128901
0.0323516
0.0342568
0.0290451
0.0272969
0.0245964
0.0224847
0.0203585
0.0185092
0.0168817
0.0155664
0.0145801
0.0139558
0.0137005
0.0138077
0.0142471
0.0149672
0.0158936
0.0169326
0.017977
0.0189157
0.0196465
0.0200902
0.0202023
0.0199836
0.0194713
0.0187525
0.017894
0.0170547
0.0161637
0.0156486
0.00107768
0.0008096
0.000364853
-8.54068e-05
-0.000686754
-0.00135501
-0.00206194
-0.0024904
-0.00258914
-0.00188249
-0.000565311
4.25396e-06
0
0
0
0
0
0
0
8.08696e-05
0.000364457
0.0207466
0.0324976
0.0253419
0.0244942
0.0214951
0.0192968
0.0169166
0.0148278
0.0129489
0.011411
0.0102427
0.00949412
0.00918411
0.00931783
0.00987242
0.0107994
0.0120209
0.0134325
0.0149067
0.016304
0.0174862
0.0183361
0.0187743
0.0187787
0.0183776
0.01767
0.0167389
0.015787
0.0147336
0.0141123
-0.00248916
-0.00267993
-0.00303503
-0.00346126
-0.00407173
-0.00476546
-0.00558745
-0.0060158
-0.0068311
-0.00554804
-0.00170059
0
0
0
0
0
0
0
0
0
0.000403965
0.0186749
0.0282728
0.0214617
0.0206739
0.0175456
0.0152341
0.0126472
0.0103401
0.00822715
0.00646975
0.00511355
0.00422878
0.00384708
0.0039892
0.00464375
0.00577039
0.00729378
0.0091038
0.0110576
0.0129883
0.0147191
0.0160871
0.0169662
0.0172973
0.017088
0.0164434
0.0154625
0.0143999
0.0131668
0.0124241
-0.00605272
-0.00616429
-0.00642511
-0.00682016
-0.00743109
-0.00813341
-0.00904157
-0.00936818
-0.0106323
-0.00834148
-0.00227111
0
0
0
0
0
0
0
0
0
0.000471967
0.0159538
0.0232698
0.0168446
0.015884
0.012737
0.0103232
0.0075844
0.00508934
0.00276724
0.000802005
-0.000741601
-0.00177303
-0.00224458
-0.00211848
-0.00139082
-8.89801e-05
0.00172055
0.00392963
0.00638712
0.00890411
0.0112669
0.0132615
0.014704
0.0154818
0.0155652
0.0150543
0.0140594
0.0128954
0.0114673
0.0105875
-0.00956569
-0.00959839
-0.00976478
-0.0101301
-0.0107472
-0.011478
-0.0124909
-0.0127322
-0.0143282
-0.0100415
-0.00186622
0
0
0
0
0
0
0
0
0
0.000262112
0.0117977
0.0165738
0.0110598
0.010012
0.00705379
0.0046217
0.00181436
-0.000819922
-0.00331474
-0.005467
-0.00719182
-0.00837646
-0.00895414
-0.0088721
-0.00810767
-0.00667149
-0.00461494
-0.00203593
0.000915828
0.00403895
0.00708897
0.00980125
0.0119254
0.013279
0.0137735
0.0134866
0.0125292
0.0112827
0.00964738
0.00861489
-0.0129768
-0.0129316
-0.0130024
-0.0133361
-0.0139594
-0.0147502
-0.0159223
-0.0163061
-0.0186495
-0.0123693
-0.00198039
-0.000308997
0
0
0
0
0
0
0
-4.69724e-05
1.33847e-06
0.00640618
0.00815586
0.00430069
0.00331426
0.00071709
-0.0016577
-0.00446603
-0.00719588
-0.0098288
-0.0121459
-0.0140406
-0.0153804
-0.0160794
-0.0160702
-0.0153112
-0.013794
-0.01155
-0.00865924
-0.0052592
-0.00155121
0.00220118
0.00568953
0.00859449
0.0106499
0.0116849
0.0117301
0.0108791
0.0095803
0.00773077
0.00653088
-0.0162437
-0.0161263
-0.0161074
-0.0164166
-0.017056
-0.0179866
-0.0193851
-0.0206799
-0.0232537
-0.0236152
-0.0119456
-0.0010451
0
0
0
0
0
0
0
-0.000150946
-0.0074464
-0.00777229
-0.00311803
-0.00420074
-0.00426254
-0.00617651
-0.00831974
-0.0110369
-0.0138073
-0.0165408
-0.0189978
-0.0210464
-0.0225382
-0.0233705
-0.0234606
-0.02275
-0.021211
-0.0188529
-0.0157317
-0.0119627
-0.00773341
-0.00331063
0.000967087
0.0047173
0.0075826
0.00928781
0.00978656
0.00912782
0.00782024
0.00575601
0.0043756
-0.01931
-0.0191283
-0.0190196
-0.0192778
-0.0198634
-0.020811
-0.0221385
-0.0239222
-0.0253867
-0.0311095
-0.0209679
-0.00329716
-0.000688042
-0.00017336
0
0
0
-0.000115898
-0.000458389
-0.00178008
-0.0141895
-0.0181696
-0.0119246
-0.0117873
-0.0113637
-0.0128631
-0.0148652
-0.0175271
-0.0203423
-0.0231679
-0.0257526
-0.0279439
-0.0295848
-0.0305575
-0.0307667
-0.0301428
-0.0286398
-0.0262451
-0.0229875
-0.0189528
-0.0143017
-0.0092868
-0.00425754
0.000355296
0.00410537
0.00659722
0.00767626
0.00731034
0.00605167
0.00378036
0.00220873
-0.0221358
-0.0219037
-0.0217132
-0.0218961
-0.0223731
-0.0232145
-0.0243666
-0.0260301
-0.0273927
-0.0311978
-0.0290314
-0.0224494
-0.0113415
-0.0010055
-0.00113114
-0.0016673
-0.00122104
-0.000646298
-0.0108191
-0.0217292
-0.0246405
-0.0224759
-0.0184462
-0.0177356
-0.0174736
-0.0188715
-0.0209078
-0.023603
-0.0265028
-0.0294331
-0.0321443
-0.034472
-0.036257
-0.0373723
-0.0377146
-0.0372073
-0.03579
-0.0334307
-0.0301313
-0.0259442
-0.0209937
-0.0155019
-0.00980723
-0.00436661
0.000298104
0.00366587
0.00544638
0.005484
0.00434568
0.00188421
0.000113739
-0.0247025
-0.0244398
-0.0241874
-0.0242867
-0.0246319
-0.0253091
-0.0262696
-0.0277192
-0.0292491
-0.0321238
-0.0348466
-0.0368597
-0.0307153
-0.0229276
-0.0234322
-0.0244251
-0.0240399
-0.0235415
-0.0309775
-0.0368992
-0.0329647
-0.027326
-0.0238872
-0.0227318
-0.0226678
-0.0240886
-0.0262462
-0.0290361
-0.032054
-0.0351035
-0.0379429
-0.0404024
-0.0423236
-0.0435786
-0.0440611
-0.0436891
-0.0423939
-0.0401282
-0.0368702
-0.0326389
-0.0275172
-0.0216842
-0.0154465
-0.00926098
-0.00370154
0.000593191
0.00317926
0.00373454
0.00280033
0.000175564
-0.00179778
-0.0270028
-0.0267313
-0.026438
-0.0264416
-0.026615
-0.0270294
-0.0276261
-0.0285257
-0.0294297
-0.0308733
-0.0318709
-0.032817
-0.0353608
-0.0364971
-0.0364295
-0.0369323
-0.0370349
-0.0375262
-0.035861
-0.032356
-0.0301237
-0.0276921
-0.0260906
-0.0257901
-0.0264168
-0.0281873
-0.0306299
-0.0336117
-0.0367972
-0.0399897
-0.042964
-0.0455531
-0.047604
-0.0489921
-0.0496129
-0.0493829
-0.0482302
-0.046097
-0.0429427
-0.0387567
-0.03358
-0.0275419
-0.0209009
-0.014088
-0.00769902
-0.00246923
0.000999864
0.00218259
0.00154597
-0.00120515
-0.00338157
-0.0290608
-0.0288049
-0.0285022
-0.0284239
-0.028439
-0.0286064
-0.0288874
-0.0293718
-0.029903
-0.0307226
-0.0313656
-0.0317152
-0.0315501
-0.0308408
-0.0306664
-0.0307984
-0.030784
-0.0309537
-0.0313155
-0.0309467
-0.0298552
-0.0284837
-0.0277732
-0.0280533
-0.0292186
-0.0313366
-0.0340737
-0.0372699
-0.0406375
-0.0439807
-0.0470903
-0.0498038
-0.0519754
-0.053487
-0.0542374
-0.054145
-0.0531387
-0.0511552
-0.0481408
-0.0440605
-0.0389181
-0.0327917
-0.0258822
-0.0185731
-0.0114511
-0.00531727
-0.000919098
0.000989646
0.000750527
-0.00208022
-0.00445616
-0.0309081
-0.0306909
-0.0304087
-0.0302627
-0.0301304
-0.0300564
-0.0300241
-0.0301081
-0.0302447
-0.0305674
-0.0308842
-0.0311922
-0.0315614
-0.031659
-0.0317078
-0.0317767
-0.0316729
-0.0314923
-0.0310305
-0.0301776
-0.0293489
-0.0286682
-0.0286286
-0.0294411
-0.0310817
-0.0335404
-0.0365636
-0.0399773
-0.0435275
-0.0470211
-0.0502619
-0.0530928
-0.0553751
-0.0569975
-0.0578637
-0.0578955
-0.0570252
-0.0551873
-0.0523207
-0.0483727
-0.0433162
-0.0371826
-0.0301126
-0.0224282
-0.0146799
-0.00769917
-0.00235481
0.000363273
0.00062511
-0.00222937
-0.00479773
-0.0325918
-0.0324352
-0.0322039
-0.03201
-0.0317533
-0.031466
-0.0311577
-0.0309031
-0.0306998
-0.0306314
-0.0306103
-0.030602
-0.0305914
-0.0304761
-0.0303925
-0.0303216
-0.0301653
-0.0299594
-0.0296542
-0.0291821
-0.0287511
-0.0285606
-0.028979
-0.0301802
-0.0321718
-0.0349032
-0.0381632
-0.0417673
-0.0454817
-0.0491136
-0.0524755
-0.055414
-0.0577959
-0.0595144
-0.060479
-0.0606153
-0.0598581
-0.0581432
-0.0554054
-0.0515808
-0.046619
-0.0405121
-0.0333448
-0.0253721
-0.0170891
-0.00932421
-0.00303482
0.000561715
0.00142997
-0.00138359
-0.00413403
-0.0341635
-0.0340879
-0.033935
-0.0337103
-0.0333492
-0.0328736
-0.0323218
-0.031778
-0.0312855
-0.0309185
-0.0306545
-0.0304759
-0.0303638
-0.0302285
-0.0300889
-0.0299173
-0.029658
-0.0293216
-0.028905
-0.0284495
-0.0281565
-0.0282186
-0.0289067
-0.0303589
-0.0325847
-0.0355106
-0.0389468
-0.0427017
-0.0465521
-0.0503038
-0.0537731
-0.0568076
-0.0592772
-0.0610773
-0.062121
-0.0623364
-0.0616604
-0.06003
-0.0573787
-0.053635
-0.0487325
-0.0426333
-0.0353743
-0.0271462
-0.0183793
-0.00987289
-0.00263928
0.00189842
0.00348189
0.000782943
-0.00213577
-0.0356812
-0.035707
-0.0356576
-0.0354146
-0.0349634
-0.0343183
-0.0335489
-0.0327521
-0.0320027
-0.0313732
-0.0308697
-0.0304779
-0.0301706
-0.0298845
-0.0296049
-0.0292966
-0.0289232
-0.0284916
-0.0280277
-0.0276048
-0.0274008
-0.0276083
-0.0284506
-0.0300485
-0.0324114
-0.0354569
-0.0390086
-0.0428703
-0.0468238
-0.0506722
-0.0542324
-0.0573501
-0.0598949
-0.0617617
-0.0628641
-0.0631304
-0.0624969
-0.0609004
-0.0582726
-0.0545376
-0.0496178
-0.0434529
-0.0360431
-0.0275232
-0.0182595
-0.00900599
-0.000803236
0.00474782
0.00716445
0.00466488
0.00159665
-0.0372088
-0.0373581
-0.0374356
-0.0371789
-0.0366421
-0.0358357
-0.0348654
-0.033843
-0.0328667
-0.0320114
-0.0312976
-0.0307139
-0.030228
-0.0297826
-0.0293422
-0.0288691
-0.0283385
-0.0277626
-0.0271882
-0.0267129
-0.0265079
-0.0267603
-0.0276617
-0.0293195
-0.0317414
-0.0348421
-0.0384536
-0.042379
-0.0464028
-0.0503244
-0.0539582
-0.0571458
-0.059753
-0.0616708
-0.0628101
-0.0630958
-0.062461
-0.0608385
-0.0581565
-0.0543317