# vtk DataFile Version 2.0

ASCII
DATASET STRUCTURED_GRID
DIMENSIONS 51 51 1
POINTS 2601 float
0 0 0
0.02 0 0
0.04 0 0
0.06 0 0
0.08 0 0
0.1 0 0
0.12 0 0
0.14 0 0
0.16 0 0
0.18 0 0
0.2 0 0
0.22 0 0
0.24 0 0
0.26 0 0
0.28 0 0
0.3 0 0
0.32 0 0
0.34 0 0
0.36 0 0
0.38 0 0
0.4 0 0
0.42 0 0
0.44 0 0
0.46 0 0
0.48 0 0
0.5 0 0
0.52 0 0
0.54 0 0
0.56 0 0
0.58 0 0
0.6 0 0
0.62 0 0
0.64 0 0
0.66 0 0
0.68 0 0
0.7 0 0
0.72 0 0
0.74 0 0
0.76 0 0
0.78 0 0
0.8 0 0
0.82 0 0
0.84 0 0
0.86 0 0
0.88 0 0
0.9 0 0
0.92 0 0
0.94 0 0
0.96 0 0
0.98 0 0
1 0 0
0 0.02 0
0.02 0.02 0
0.04 0.02 0
0.06 0.02 0
0.08 0.02 0
0.1 0.02 0
0.12 0.02 0
0.14 0.02 0
0.16 0.02 0
0.18 0.02 0
0.2 0.02 0
0.22 0.02 0
0.24 0.02 0
0.26 0.02 0
0.28 0.02 0
0.3 0.02 0
0.32 0.02 0
0.34 0.02 0
0.36 0.02 0
0.38 0.02 0
0.4 0.02 0
0.42 0.02 0
0.44 0.02 0
0.46 0.02 0
0.48 0.02 0
0.5 0.02 0
0.52 0.02 0
0.54 0.02 0
0.56 0.02 0
0.58 0.02 0
0.6 0.02 0
0.62 0.02 0
0.64 0.02 0
0.66 0.02 0
0.68 0.02 0
0.7 0.02 0
0.72 0.02 0
0.74 0.02 0
0.76 0.02 0
0.78 0.02 0
0.8 0.02 0
0.82 0.02 0
0.84 0.02 0
0.86 0.02 0
0.88 0.02 0
0.9 0.02 0
0.92 0.02 0
0.94 0.02 0
0.96 0.02 0
0.98 0.02 0
1 0.02 0
0 0.04 0
0.02 0.04 0
0.04 0.04 0
0.06 0.04 0
0.08 0.04 0
0.1 0.04 0
0.12 0.04 0
0.14 0.04 0
0.16 0.04 0
0.18 0.04 0
0.2 0.04 0
0.22 0.04 0
0.24 0.04 0
0.26 0.04 0
0.28 0.04 0
0.3 0.04 0
0.32 0.04 0
0.34 0.04 0
0.36 0.04 0
0.38 0.04 0
0.4 0.04 0
0.42 0.04 0
0.44 0.04 0
0.46 0.04 0
0.48 0.04 0
0.5 0.04 0
0.52 0.04 0
0.54 0.04 0
0.56 0.04 0
0.58 0.04 0
0.6 0.04 0
0.62 0.04 0
0.64 0.04 0
0.66 0.04 0
0.68 0.04 0
0.7 0.04 0
0.72 0.04 0
0.74 0.04 0
0.76 0.04 0
0.78 0.04 0
0.8 0.04 0
0.82 0.04 0
0.84 0.04 0
0.86 0.04 0
0.88 0.04 0
0.9 0.04 0
0.92 0.04 0
0.94 0.04 0
0.96 0.04 0
0.98 0.04 0
1 0.04 0
0 0.06 0
0.02 0.06 0
0.04 0.06 0
0.06 0.06 0
0.08 0.06 0
0.1 0.06 0
0.12 0.06 0
0.14 0.06 0
0.16 0.06 0
0.18 0.06 0
0.2 0.06 0
0.22 0.06 0
0.24 0.06 0
0.26 0.06 0
0.28 0.06 0
0.3 0.06 0
0.32 0.06 0
0.34 0.06 0
0.36 0.06 0
0.38 0.06 0
0.4 0.06 0
0.42 0.06 0
0.44 0.06 0
0.46 0.06 0
0.48 0.06 0
0.5 0.06 0
0.52 0.06 0
0.54 0.06 0
0.56 0.06 0
0.58 0.06 0
0.6 0.06 0
0.62 0.06 0
0.64 0.06 0
0.66 0.06 0
0.68 0.06 0
0.7 0.06 0
0.72 0.06 0
0.74 0.06 0
0.76 0.06 0
0.78 0.06 0
0.8 0.06 0
0.82 0.06 0
0.84 0.06 0
0.86 0.06 0
0.88 0.06 0
0.9 0.06 0
0.92 0.06 0
0.94 0.06 0
0.96 0.06 0
0.98 0.06 0
1 0.06 0
0 0.08 0
0.02 0.08 0
0.04 0.08 0
0.06 0.08 0
0.08 0.08 0
0.1 0.08 0
0.12 0.08 0
0.14 0.08 0
0.16 0.08 0
0.18 0.08 0
0.2 0.08 0
0.22 0.08 0
0.24 0.08 0
0.26 0.08 0
0.28 0.08 0
0.3 0.08 0
0.32 0.08 0
0.34 0.08 0
0.36 0.08 0
0.38 0.08 0
0.4 0.08 0
0.42 0.08 0
0.44 0.08 0
0.46 0.08 0
0.48 0.08 0
0.5 0.08 0
0.52 0.08 0
0.54 0.08 0
0.56 0.08 0
0.58 0.08 0
0.6 0.08 0
0.62 0.08 0
0.64 0.08 0
0.66 0.08 0
0.68 0.08 0
0.7 0.08 0
0.72 0.08 0
0.74 0.08 0
0.76 0.08 0
0.78 0.08 0
0.8 0.08 0
0.82 0.08 0
0.84 0.08 0
0.86 0.08 0
0.88 0.08 0
0.9 0.08 0
0.92 0.08 0
0.94 0.08 0
0.96 0.08 0
0.98 0.08 0
1 0.08 0
0 0.1 0
0.02 0.1 0
0.04 0.1 0
0.06 0.1 0
0.08 0.1 0
0.1 0.1 0
0.12 0.1 0
0.14 0.1 0
0.16 0.1 0
0.18 0.1 0
0.2 0.1 0
0.22 0.1 0
0.24 0.1 0
0.26 0.1 0
0.28 0.1 0
0.3 0.1 0
0.32 0.1 0
0.34 0.1 0
0.36 0.1 0
0.38 0.1 0
0.4 0.1 0
0.42 0.1 0
0.44 0.1 0
0.46 0.1 0
0.48 0.1 0
0.5 0.1 0
0.52 0.1 0
0.54 0.1 0
0.56 0.1 0
0.58 0.1 0
0.6 0.1 0
0.62 0.1 0
0.64 0.1 0
0.66 0.1 0
0.68 0.1 0
0.7 0.1 0
0.72 0.1 0
0.74 0.1 0
0.76 0.1 0
0.78 0.1 0
0.8 0.1 0
0.82 0.1 0
0.84 0.1 0
0.86 0.1 0
0.88 0.1 0
0.9 0.1 0
0.92 0.1 0
0.94 0.1 0
0.96 0.1 0
0.98 0.1 0
1 0.1 0
0 0.12 0
0.02 0.12 0
0.04 0.12 0
0.06 0.12 0
0.08 0.12 0
0.1 0.12 0
0.12 0.12 0
0.14 0.12 0
0.16 0.12 0
0.18 0.12 0
0.2 0.12 0
0.22 0.12 0
0.24 0.12 0
0.26 0.12 0
0.28 0.12 0
0.3 0.12 0
0.32 0.12 0
0.34 0.12 0
0.36 0.12 0
0.38 0.12 0
0.4 0.12 0
0.42 0.12 0
0.44 0.12 0
0.46 0.12 0
0.48 0.12 0
0.5 0.12 0
0.52 0.12 0
0.54 0.12 0
0.56 0.12 0
0.58 0.12 0
0.6 0.12 0
0.62 0.12 0
0.64 0.12 0
0.66 0.12 0
0.68 0.12 0
0.7 0.12 0
0.72 0.12 0
0.74 0.12 0
0.76 0.12 0
0.78 0.12 0
0.8 0.12 0
0.82 0.12 0
0.84 0.12 0
0.86 0.12 0
0.88 0.12 0
0.9 0.12 0
0.92 0.12 0
0.94 0.12 0
0.96 0.12 0
0.98 0.12 0
1 0.12 0
0 0.14 0
0.02 0.14 0
0.04 0.14 0
0.06 0.14 0
0.08 0.14 0
0.1 0.14 0
0.12 0.14 0
0.14 0.14 0
0.16 0.14 0
0.18 0.14 0
0.2 0.14 0
0.22 0.14 0
0.24 0.14 0
0.26 0.14 0
0.28 0.14 0
0.3 0.14 0
0.32 0.14 0
0.34 0.14 0
0.36 0.14 0
0.38 0.14 0
0.4 0.14 0
0.42 0.14 0
0.44 0.14 0
0.46 0.14 0
0.48 0.14 0
0.5 0.14 0
0.52 0.14 0
0.54 0.14 0
0.56 0.14 0
0.58 0.14 0
0.6 0.14 0
0.62 0.14 0
0.64 0.14 0
0.66 0.14 0
0.68 0.14 0
0.7 0.14 0
0.72 0.14 0
0.74 0.14 0
0.76 0.14 0
0.78 0.14 0
0.8 0.14 0
0.82 0.14 0
0.84 0.14 0
0.86 0.14 0
0.88 0.14 0
0.9 0.14 0
0.92 0.14 0
0.94 0.14 0
0.96 0.14 0
0.98 0.14 0
1 0.14 0
0 0.16 0
0.02 0.16 0
0.04 0.16 0
0.06 0.16 0
0.08 0.16 0
0.1 0.16 0
0.12 0.16 0
0.14 0.16 0
0.16 0.16 0
0.18 0.16 0
0.2 0.16 0
0.22 0.16 0
0.24 0.16 0
0.26 0.16 0
0.28 0.16 0
0.3 0.16 0
0.32 0.16 0
0.34 0.16 0
0.36 0.16 0
0.38 0.16 0
0.4 0.16 0
0.42 0.16 0
0.44 0.16 0
0.46 0.16 0
0.48 0.16 0
0.5 0.16 0
0.52 0.16 0
0.54 0.16 0
0.56 0.16 0
0.58 0.16 0
0.6 0.16 0
0.62 0.16 0
0.64 0.16 0
0.66 0.16 0
0.68 0.16 0
0.7 0.16 0
0.72 0.16 0
0.74 0.16 0
0.76 0.16 0
0.78 0.16 0
0.8 0.16 0
0.82 0.16 0
0.84 0.16 0
0.86 0.16 0
0.88 0.16 0
0.9 0.16 0
0.92 0.16 0
0.94 0.16 0
0.96 0.16 0
0.98 0.16 0
1 0.16 0
0 0.18 0
0.02 0.18 0
0.04 0.18 0
0.06 0.18 0
0.08 0.18 0
0.1 0.18 0
0.12 0.18 0
0.14 0.18 0
0.16 0.18 0
0.18 0.18 0
0.2 0.18 0
0.22 0.18 0
0.24 0.18 0
0.26 0.18 0
0.28 0.18 0
0.3 0.18 0
0.32 0.18 0
0.34 0.18 0
0.36 0.18 0
0.38 0.18 0
0.4 0.18 0
0.42 0.18 0
0.44 0.18 0
0.46 0.18 0
0.48 0.18 0
0.5 0.18 0
0.52 0.18 0
0.54 0.18 0
0.56 0.18 0
0.58 0.18 0
0.6 0.18 0
0.62 0.18 0
0.64 0.18 0
0.66 0.18 0
0.68 0.18 0
0.7 0.18 0
0.72 0.18 0
0.74 0.18 0
0.76 0.18 0
0.78 0.18 0
0.8 0.18 0
0.82 0.18 0
0.84 0.18 0
0.86 0.18 0
0.88 0.18 0
0.9 0.18 0
0.92 0.18 0
0.94 0.18 0
0.96 0.18 0
0.98 0.18 0
1 0.18 0
0 0.2 0
0.02 0.2 0
0.04 0.2 0
0.06 0.2 0
0.08 0.2 0
0.1 0.2 0
0.12 0.2 0
0.14 0.2 0
0.16 0.2 0
0.18 0.2 0
0.2 0.2 0
0.22 0.2 0
0.24 0.2 0
0.26 0.2 0
0.28 0.2 0
0.3 0.2 0
0.32 0.2 0
0.34 0.2 0
0.36 0.2 0
0.38 0.2 0
0.4 0.2 0
0.42 0.2 0
0.44 0.2 0
0.46 0.2 0
0.48 0.2 0
0.5 0.2 0
0.52 0.2 0
0.54 0.2 0
0.56 0.2 0
0.58 0.2 0
0.6 0.2 0
0.62 0.2 0
0.64 0.2 0
0.66 0.2 0
0.68 0.2 0
0.7 0.2 0
0.72 0.2 0
0.74 0.2 0
0.76 0.2 0
0.78 0.2 0
0.8 0.2 0
0.82 0.2 0
0.84 0.2 0
0.86 0.2 0
0.88 0.2 0
0.9 0.2 0
0.92 0.2 0
0.94 0.2 0
0.96 0.2 0
0.98 0.2 0
1 0.2 0
0 0.22 0
0.02 0.22 0
0.04 0.22 0
0.06 0.22 0
0.08 0.22 0
0.1 0.22 0
0.12 0.22 0
0.14 0.22 0
0.16 0.22 0
0.18 0.22 0
0.2 0.22 0
0.22 0.22 0
0.24 0.22 0
0.26 0.22 0
0.28 0.22 0
0.3 0.22 0
0.32 0.22 0
0.34 0.22 0
0.36 0.22 0
0.38 0.22 0
0.4 0.22 0
0.42 0.22 0
0.44 0.22 0
0.46 0.22 0
0.48 0.22 0
0.5 0.22 0
0.52 0.22 0
0.54 0.22 0
0.56 0.22 0
0.58 0.22 0
0.6 0.22 0
0.62 0.22 0
0.64 0.22 0
0.66 0.22 0
0.68 0.22 0
0.7 0.22 0
0.72 0.22 0
0.74 0.22 0
0.76 0.22 0
0.78 0.22 0
0.8 0.22 0
0.82 0.22 0
0.84 0.22 0
0.86 0.22 0
0.88 0.22 0
0.9 0.22 0
0.92 0.22 0
0.94 0.22 0
0.96 0.22 0
0.98 0.22 0
1 0.22 0
0 0.24 0
0.02 0.24 0
0.04 0.24 0
0.06 0.24 0
0.08 0.24 0
0.1 0.24 0
0.12 0.24 0
0.14 0.24 0
0.16 0.24 0
0.18 0.24 0
0.2 0.24 0
0.22 0.24 0
0.24 0.24 0
0.26 0.24 0
0.28 0.24 0
0.3 0.24 0
0.32 0.24 0
0.34 0.24 0
0.36 0.24 0
0.38 0.24 0
0.4 0.24 0
0.42 0.24 0
0.44 0.24 0
0.46 0.24 0
0.48 0.24 0
0.5 0.24 0
0.52 0.24 0
0.54 0.24 0
0.56 0.24 0
0.58 0.24 0
0.6 0.24 0
0.62 0.24 0
0.64 0.24 0
0.66 0.24 0
0.68 0.24 0
0.7 0.24 0
0.72 0.24 0
0.74 0.24 0
0.76 0.24 0
0.78 0.24 0
0.8 0.24 0
0.82 0.24 0
0.84 0.24 0
0.86 0.24 0
0.88 0.24 0
0.9 0.24 0
0.92 0.24 0
0.94 0.24 0
0.96 0.24 0
0.98 0.24 0
1 0.24 0
0 0.26 0
0.02 0.26 0
0.04 0.26 0
0.06 0.26 0
0.08 0.26 0
0.1 0.26 0
0.12 0.26 0
0.14 0.26 0
0.16 0.26 0
0.18 0.26 0
0.2 0.26 0
0.22 0.26 0
0.24 0.26 0
0.26 0.26 0
0.28 0.26 0
0.3 0.26 0
0.32 0.26 0
0.34 0.26 0
0.36 0.26 0
0.38 0.26 0
0.4 0.26 0
0.42 0.26 0
0.44 0.26 0
0.46 0.26 0
0.48 0.26 0
0.5 0.26 0
0.52 0.26 0
0.54 0.26 0
0.56 0.26 0
0.58 0.26 0
0.6 0.26 0
0.62 0.26 0
0.64 0.26 0
0.66 0.26 0
0.68 0.26 0
0.7 0.26 0
0.72 0.26 0
0.74 0.26 0
0.76 0.26 0
0.78 0.26 0
0.8 0.26 0
0.82 0.26 0
0.84 0.26 0
0.86 0.26 0
0.88 0.26 0
0.9 0.26 0
0.92 0.26 0
0.94 0.26 0
0.96 0.26 0
0.98 0.26 0
1 0.26 0
0 0.28 0
0.02 0.28 0
0.04 0.28 0
0.06 0.28 0
0.08 0.28 0
0.1 0.28 0
0.12 0.28 0
0.14 0.28 0
0.16 0.28 0
0.18 0.28 0
0.2 0.28 0
0.22 0.28 0
0.24 0.28 0
0.26 0.28 0
0.28 0.28 0
0.3 0.28 0
0.32 0.28 0
0.34 0.28 0
0.36 0.28 0
0.38 0.28 0
0.4 0.28 0
0.42 0.28 0
0.44 0.28 0
0.46 0.28 0
0.48 0.28 0
0.5 0.28 0
0.52 0.28 0
0.54 0.28 0
0.56 0.28 0
0.58 0.28 0
0.6 0.28 0
0.62 0.28 0
0.64 0.28 0
0.66 0.28 0
0.68 0.28 0
0.7 0.28 0
0.72 0.28 0
0.74 0.28 0
0.76 0.28 0
0.78 0.28 0
0.8 0.28 0
0.82 0.28 0
0.84 0.28 0
0.86 0.28 0
0.88 0.28 0
0.9 0.28 0
0.92 0.28 0
0.94 0.28 0
0.96 0.28 0
0.98 0.28 0
1 0.28 0
0 0.3 0
0.02 0.3 0
0.04 0.3 0
0.06 0.3 0
0.08 0.3 0
0.1 0.3 0
0.12 0.3 0
0.14 0.3 0
0.16 0.3 0
0.18 0.3 0
0.2 0.3 0
0.22 0.3 0
0.24 0.3 0
0.26 0.3 0
0.28 0.3 0
0.3 0.3 0
0.32 0.3 0
0.34 0.3 0
0.36 0.3 0
0.38 0.3 0
0.4 0.3 0
0.42 0.3 0
0.44 0.3 0
0.46 0.3 0
0.48 0.3 0
0.5 0.3 0
0.52 0.3 0
0.54 0.3 0
0.56 0.3 0
0.58 0.3 0
0.6 0.3 0
0.62 0.3 0
0.64 0.3 0
0.66 0.3 0
0.68 0.3 0
0.7 0.3 0
0.72 0.3 0
0.74 0.3 0
0.76 0.3 0
0.78 0.3 0
0.8 0.3 0
0.82 0.3 0
0.84 0.3 0
0.86 0.3 0
0.88 0.3 0
0.9 0.3 0
0.92 0.3 0
0.94 0.3 0
0.96 0.3 0
0.98 0.3 0
1 0.3 0
0 0.32 0
0.02 0.32 0
0.04 0.32 0
0.06 0.32 0
0.08 0.32 0
0.1 0.32 0
0.12 0.32 0
0.14 0.32 0
0.16 0.32 0
0.18 0.32 0
0.2 0.32 0
0.22 0.32 0
0.24 0.32 0
0.26 0.32 0
0.28 0.32 0
0.3 0.32 0
0.32 0.32 0
0.34 0.32 0
0.36 0.32 0
0.38 0.32 0
0.4 0.32 0
0.42 0.32 0
0.44 0.32 0
0.46 0.32 0
0.48 0.32 0
0.5 0.32 0
0.52 0.32 0
0.54 0.32 0
0.56 0.32 0
0.58 0.32 0
0.6 0.32 0
0.62 0.32 0
0.64 0.32 0
0.66 0.32 0
0.68 0.32 0
0.7 0.32 0
0.72 0.32 0
0.74 0.32 0
0.76 0.32 0
0.78 0.32 0
0.8 0.32 0
0.82 0.32 0
0.84 0.32 0
0.86 0.32 0
0.88 0.32 0
0.9 0.32 0
0.92 0.32 0
0.94 0.32 0
0.96 0.32 0
0.98 0.32 0
1 0.32 0
0 0.34 0
0.02 0.34 0
0.04 0.34 0
0.06 0.34 0
0.08 0.34 0
[...]
POINT_DATA 2601
SCALARS pressure float 1
LOOKUP_TABLE default
4.67191
4.67359
4.67577
4.67708
4.67734
4.6763
4.67359
4.66924
4.66348
4.65654
4.64868
4.64018
4.63126
4.62213
4.61293
4.60379
4.59478
4.58592
4.57724
4.56873
4.56038
4.5522
4.54416
4.53626
4.52854
4.52099
4.51365
4.50657
4.49976
4.49327
4.48715
4.48143
4.47614
4.47131
4.46695
4.46307
4.45968
4.45677
4.45433
4.45235
4.45082
4.44974
4.44911
4.44892
4.44909
4.44964
4.45056
4.45175
4.45295
4.45362
4.45362
4.67027
4.67193
4.67351
4.67419
4.67401
4.67265
4.6698
4.66555
4.66004
4.65345
4.64602
4.63795
4.62947
4.62074
4.61189
4.60304
4.59428
4.58561
4.57708
4.56869
4.56044
4.55234
4.54438
4.53658
4.52896
4.52153
4.51433
4.50738
4.50072
4.4944
4.48845
4.48289
4.47775
4.47306
4.46884
4.46508
4.46178
4.45895
4.45656
4.45461
4.45308
4.45196
4.45124
4.45092
4.45093
4.45124
4.45185
4.45269
4.4536
4.45428
4.45428
4.66806
4.67031
4.67192
4.67246
4.6721
4.67052
4.66754
4.66324
4.65776
4.65128
4.644
4.63614
4.62788
4.61939
4.61079
4.60218
4.59362
4.58513
4.57675
4.56847
4.56032
4.55228
4.54439
4.53665
4.52909
4.52172
4.51459
4.50772
4.50115
4.49492
4.48908
4.48364
4.47863
4.47407
4.46997
4.46633
4.46315
4.46041
4.45809
4.45618
4.45467
4.45354
4.45276
4.45235
4.45225
4.45243
4.45289
4.45358
4.4545
4.45551
4.45551
4.66643
4.66943
4.67127
4.6718
4.67132
4.66952
4.66631
4.66184
4.65623
4.64969
4.6424
4.63459
4.62644
4.61809
4.60966
4.60122
4.59282
4.58449
4.57624
4.56808
4.56001
4.55205
4.54421
4.5365
4.52896
4.52161
4.51449
4.50764
4.5011
4.49492
4.48912
4.48374
4.4788
4.47432
4.47031
4.46675
4.46365
4.461
4.45877
4.45694
4.45548
4.45437
4.45359
4.45314
4.45299
4.45311
4.45352
4.45421
4.45529
4.4567
4.4567
4.66571
4.66924
4.67127
4.67179
4.67117
4.66913
4.66558
4.66078
4.65491
4.64817
4.64077
4.63294
4.62484
4.61661
4.60833
4.60006
4.59185
4.58368
4.57558
4.56753
4.55955
4.55165
4.54383
4.53613
4.52857
4.5212
4.51406
4.50719
4.50064
4.49445
4.48867
4.48331
4.47842
4.474
4.47006
4.46659
4.46358
4.46101
4.45887
4.45712
4.45572
4.45465
4.45389
4.45344
4.45328
4.45338
4.45379
4.4545
4.45572
4.4575
4.4575
4.66591
4.66987
4.67202
4.67248
4.67166
4.66925
4.6653
4.66003
4.65375
4.6467
4.63911
4.63119
4.6231
4.61495
4.60682
4.59874
4.59071
4.58273
4.57479
4.56687
4.55898
4.55111
4.5433
4.53556
4.52794
4.52048
4.51325
4.50629
4.49966
4.49341
4.48758
4.48222
4.47734
4.47296
4.46908
4.4657
4.4628
4.46034
4.4583
4.45664
4.45533
4.45433
4.45363
4.45321
4.45307
4.45318
4.45362
4.45439
4.45574
4.4578
4.4578
4.66727
4.6716
4.67377
4.67405
4.67287
4.6699
4.66538
4.65956
4.65274
4.64528
4.63742
4.62936
4.62125
4.6132
4.60523
4.59734
4.58953
4.58175
4.57397
4.56618
4.55837
4.55052
4.54267
4.53486
4.52713
4.51954
4.51215
4.50503
4.49825
4.49187
4.48593
4.48049
4.47557
4.47118
4.46733
4.46401
4.46119
4.45884
4.45691
4.45538
4.45419
4.45331
4.45269
4.45235
4.45226
4.45242
4.45291
4.45375
4.45524
4.45753
4.45753
4.67013
4.67462
4.67662
4.67657
4.67487
4.6712
4.66592
4.65944
4.65202
4.64404
4.63584
4.62761
4.61949
4.61153
4.60372
4.59605
4.58845
4.58087
4.57327
4.5656
4.55784
4.54999
4.54208
4.53414
4.52624
4.51846
4.51086
4.50352
4.49652
4.48994
4.48383
4.47825
4.47322
4.46877
4.4649
4.4616
4.45884
4.45657
4.45476
4.45334
4.45228
4.45151
4.45102
4.45078
4.45076
4.45097
4.45153
4.45243
4.45402
4.45651
4.45651
4.67464
4.67906
4.68075
4.68022
4.67777
4.67325
4.66711
4.65982
4.65177
4.64328
4.63469
4.62627
4.61809
4.61019
4.60254
4.59507
4.58767
4.58029
4.57284
4.56527
4.55754
4.54964
4.54162
4.53352
4.52541
4.51737
4.5095
4.50188
4.4946
4.48776
4.48141
4.47563
4.47044
4.46587
4.46193
4.4586
4.45585
4.45364
4.45191
4.4506
4.44966
4.44901
4.44864
4.44849
4.44855
4.44884
4.44945
4.4504
4.45205
4.45462
4.45462
4.681
4.68517
4.68637
4.68519
4.68179
4.67628
4.66918
4.66099
4.6522
4.64319
4.63426
4.62564
4.61739
4.60952
4.60196
4.59461
4.58736
4.5801
4.57275
4.56522
4.55748
4.54952
4.54138
4.53309
4.52473
4.5164
4.50821
4.50026
4.49265
4.48549
4.47885
4.4728
4.46739
4.46265
4.45858
4.45517
4.45239
4.45018
4.4485
4.44726
4.44641
4.44587
4.4456
4.44554
4.44567
4.44602
4.44667
4.44764
4.44929
4.45186
4.45186
4.68953
4.69319
4.69372
4.69173
4.68722
4.68059
4.67243
4.66328
4.65365
4.64402
4.63471
4.62584
4.61746
4.60954
4.60201
4.59471
4.58752
4.58031
4.57299
4.56547
4.55769
4.54962
4.54131
4.53282
4.5242
4.51558
4.50708
4.49879
4.49083
4.48332
4.47634
4.46997
4.46429
4.4593
4.45504
4.45149
4.44861
4.44636
4.44467
4.44345
4.44264
4.44216
4.44196
4.44196
4.44214
4.44253
4.4432
4.44415
4.44576
4.44827
4.44827
4.70049
4.70341
4.70307
4.70007
4.69434
4.6865
4.6772
4.66703
4.65654
4.64623
4.63639
4.62713
4.61849
4.6104
4.60276
4.5954
4.58819
4.58095
4.57356
4.56591
4.55798
4.54977
4.54128
4.53257
4.52372
4.51482
4.50602
4.49743
4.48916
4.48133
4.47403
4.46735
4.46136
4.45609
4.45158
4.44781
4.44476
4.44238
4.4406
4.43934
4.43851
4.43803
4.43784
4.43784
4.43802
4.43841
4.43905
4.43995
4.44148
4.44387
4.44387
4.71411
4.71611
4.71472
4.71046
4.70344
4.69433
4.68383
4.67258
4.66117
4.65009
4.6396
4.6298
4.6207
4.61224
4.60433
4.59671
4.58919
4.58164
4.57399
4.56612
4.55799
4.54958
4.54091
4.53201
4.52297
4.51387
4.50485
4.49603
4.48753
4.47945
4.47191
4.46498
4.45872
4.45318
4.4484
4.44437
4.44109
4.43849
4.43653
4.43512
4.43418
4.43361
4.43334
4.43329
4.43341
4.43372
4.43427
4.43508
4.43649
4.4387
4.4387
4.73066
4.73143
4.72882
4.72314
4.71477
4.70434
4.69259
4.68017
4.66771
4.6557
4.64434
4.63374
4.62397
4.61489
4.60629
4.59795
4.58982
4.58176
4.57367
4.56544
4.55702
4.54835
4.53947
4.53042
4.52127
4.5121
4.50303
4.49416
4.4856
4.47745
4.4698
4.46275
4.45634
4.45062
4.44561
4.44133
4.43778
4.43491
4.43269
4.43103
4.42985
4.42907
4.42861
4.4284
4.42837
4.42852
4.42892
4.42959
4.43082
4.43284
4.43284
4.75032
4.74945
4.74538
4.73824
4.72848
4.71668
4.7036
4.68988
4.67617
4.66294
4.65042
4.63878
4.62788
4.61755
4.60763
4.59826
4.58923
4.58038
4.57153
4.56266
4.55373
4.54472
4.53564
4.52652
4.51742
4.5084
4.49955
4.49094
4.48264
4.47473
4.46728
4.46035
4.454
4.44827
4.44318
4.43874
4.43494
4.43179
4.42923
4.42723
4.4257
4.42458
4.42379
4.42327
4.42297
4.42288
4.42304
4.42349
4.42451
4.42631
4.42631
4.77307
4.77009
4.76427
4.75571
4.74453
4.73128
4.71673
4.7015
4.68625
4.67154
4.6575
4.64412
4.6312
4.61893
4.60741
4.59651
4.58598
4.57573
4.5657
4.55586
4.54619
4.53672
4.52744
4.51837
4.50954
4.50098
4.49274
4.48484
4.47729
4.47013
4.46338
4.45706
4.45118
4.44577
4.44086
4.43646
4.43256
4.42917
4.42626
4.42384
4.42185
4.42026
4.41899
4.41801
4.41727
4.41681
4.41665
4.41682
4.41756
4.41913
4.41913
4.79846
4.79296
4.78521
4.7752
4.76256
4.74775
4.73156
4.71462
4.69754
4.68076
4.66429
4.648
4.6325
4.61785
4.60394
4.59055
4.57771
4.56539
4.55357
4.54228
4.53155
4.52142
4.5119
4.50302
4.49476
4.4871
4.48002
4.47349
4.46742
4.46176
4.45648
4.45152
4.44682
4.44236
4.43811
4.43411
4.43038
4.42692
4.42376
4.42091
4.41838
4.41618
4.41429
4.41268
4.41135
4.41034
4.40973
4.40955
4.40997
4.4113
4.4113
4.82592
4.8175
4.80768
4.79622
4.78207
4.76556
4.74742
4.72831
4.7087
4.6887
4.66848
4.64894
4.63016
4.612
4.59442
4.57751
4.56141
4.54614
4.53177
4.51839
4.50611
4.49504
4.48523
4.47669
4.46935
4.46311
4.45786
4.45351
4.44986
4.44673
4.444
4.4415
4.43906
4.43654
4.43386
4.43098
4.42792
4.42473
4.42152
4.41834
4.41527
4.41237
4.40969
4.40728
4.4052
4.40348
4.40224
4.40162
4.40169
4.40276
4.40276
4.8544
4.84265
4.83064
4.81767
4.80188
4.78339
4.76278
4.74062
4.71714
4.69286
4.66861
4.64488
4.6213
4.59814
4.57561
4.55393
4.53331
4.51393
4.49597
4.47962
4.46507
4.45257
4.44227
4.43417
4.42815
4.42399
4.42151
4.42053
4.42051
4.42111
4.42227
4.42373
4.42507
4.42589
4.42608
4.42557
4.42421
4.42201
4.41917
4.41589
4.41236
4.40872
4.40514
4.40178
4.39875
4.39615
4.39413
4.3929
4.39256
4.39339
4.39339
4.88191
4.86662
4.85249
4.83786
4.8201
4.79902
4.77501
4.74846
4.72043
4.69148
4.66219
4.63238
4.60239
4.57263
4.5435
4.51536
4.48857
4.46357
4.44068
4.42018
4.4024
4.38773
4.37653
4.36897
4.36493
4.36379
4.36483
4.36796
4.37297
4.37929
4.38639
4.39384
4.401
4.40723
4.41221
4.41566
4.41723
4.41724
4.41586
4.41307
4.40934
4.40507
4.40055
4.39607
4.3919
4.38823
4.38526
4.38325
4.3824
4.383
4.383
4.90608
4.88715
4.8709
4.85431
4.83394
4.80928
4.78099
4.74983
4.71657
4.68154
4.645
4.60744
4.56926
4.53088
4.49303
4.45639
4.42159
4.38928
4.35995
4.334
4.31181
4.29403
4.28156
4.27489
4.27314
4.27498
4.28027
4.289
4.30064
4.31448
4.3297
4.34567
4.3614
4.37576
4.38809
4.39789
4.4048
4.40872
4.40989
4.40876
4.40564
4.40105
4.39566
4.38998
4.38449
4.37955
4.37543
4.37246
4.37099
4.3713
4.3713
4.92358
4.90078
4.88221
4.86324
4.84014
4.81191
4.77902
4.74229
4.70189
4.65853
4.61283
4.56539
4.5168
4.46761
4.41882
4.37154
4.3267
4.28524
4.24785
4.21496
4.18704
4.16518
4.15106
4.14536
4.14571
4.15067
4.16101
4.17646
4.19631
4.21957
4.24514
4.27212
4.29929
4.32508
4.34825
4.36772
4.38289
4.39348
4.3995
4.40138
4.40003
4.39599
4.39007
4.38324
4.37629
4.36986
4.36439
4.36025
4.358
4.35794
4.35794
4.93129
4.90516
4.88468
4.86354
4.83721
4.80451
4.76557
4.72094
4.67149
4.61786
4.56076
4.50112
4.43978
4.37748
4.3155
4.25542
4.19853
4.14613
4.09909
4.05784
4.02295
3.99619
3.9801
3.97471
3.97682
3.9853
4.00114
4.02408
4.05329
4.08763
4.1257
4.16615
4.20759
4.2481
4.28572
4.31891
4.3464
4.36729
4.38137
4.3889
4.39093
4.3887
4.38311
4.37543
4.367
4.35889
4.35183
4.34632
4.34305
4.34245
4.34245
4.92786
4.89815
4.87547
4.85165
4.82082
4.78171
4.73487
4.68095
4.62053
4.55443
4.48372
4.40958
4.33316
4.25548
4.17821
4.1034
4.03276
3.96795
3.91
3.85928
3.81651
3.78424
3.76571
3.7602
3.76374
3.77565
3.79709
3.82783
3.86703
3.91345
3.96551
4.02141
4.07962
4.13793
4.19362
4.24451
4.28865
4.3245
4.35103
4.36802
4.37616
4.37752
4.37371
4.36596
4.35621
4.34628
4.33739
4.33026
4.32569
4.32434
4.32434
4.90815
4.87412
4.84845
4.82085
4.78466
4.73842
4.68255
4.61743
4.54396
4.46333
4.37686
4.28607
4.19247
4.09748
4.00329
3.91236
3.82686
3.74876
3.67921
3.61849
3.56749
3.52944
3.50819
3.50226
3.507
3.52205
3.54882
3.58718
3.63633
3.69501
3.76161
3.83411
3.91055
3.9887
4.06555
4.1379
4.20298
4.25844
4.30249
4.33399
4.35275
4.3603
4.36001
4.35387
4.34342
4.33166
4.32066
4.3116
4.30542
4.30305
4.30305
4.86512
4.82707
4.79831
4.76653
4.72442
4.67009
4.60343
4.52531
4.43702
4.33998
4.2359
4.12676
4.01437
3.90079
3.78879
3.68117
3.58049
3.48901
3.40793
3.33741
3.27848
3.23495
3.21107
3.20467
3.21046
3.22835
3.26001
3.30542
3.36388
3.43421
3.51485
3.60384
3.69884
3.79762
3.89716
3.99362
4.08333
4.16284
4.22932
4.28069
4.31564
4.33437
4.34035
4.33736
4.32777
4.31451
4.30116
4.28984
4.28166
4.27795
4.27795
4.79522
4.75367
4.7219
4.68577
4.63671
4.57222
4.49298
4.4003
4.29559
4.18062
4.05759
3.92901
3.79704
3.66446
3.53471
3.41076
3.29552
3.19146
3.09972
3.02031
2.95439
2.90625
2.88035
2.87373
2.88059
2.90115
2.93725
2.98901
3.0558
3.13659
3.22997
3.33416
3.44688
3.56555
3.68757
3.80906
3.92541
4.03237
4.12572
4.20204
4.25893
4.29517
4.31185
4.31469
4.30781
4.29409
4.27842
4.26441
4.2538
4.24831
4.24831
4.69346
4.64814
4.61285
4.57183
4.51439
4.43881
4.34636
4.23824
4.11616
3.98245
3.83992
3.69165
3.54027
3.38935
3.24285
3.10389
2.9756
2.86051
2.75966
2.67288
2.60142
2.54999
2.52317
2.51691
2.52504
2.5483
2.58859
2.64608
2.72023
2.81012
2.91455
3.03196
3.16037
3.29728
3.44
3.5852
3.72824
3.86398
3.98717
4.09279
4.1768
4.23655
4.27102
4.28343
4.28144
4.26944
4.25179
4.23465
4.22112
4.21335
4.21335
4.55747
4.50943
4.47154
4.42448
4.35708
4.26909
4.16197
4.03715
3.89692
3.7442
3.58242
3.41499
3.24539
3.07787
2.91648
2.76458
2.62537
2.50139
2.39344
2.30114
2.22588
2.17279
2.14643
2.14131
2.15111
2.17738
2.22189
2.28478
2.36556
2.46341
2.57727
2.70583
2.84744
2.99998
3.1608
3.32703
3.49461
3.65816
3.81181
3.94926
4.06457
4.1531
4.21188
4.24065
4.24688
4.23854
4.22031
4.19994
4.18282
4.17222
4.17222
4.37947
4.32735
4.28384
4.22942
4.15301
4.05414
3.93367
3.79329
3.63595
3.46535
3.28571
3.10077
2.91498
2.73328
2.55958
2.39734
2.24975
2.11923
2.00635
1.91054
1.83333
1.78028
1.75579
1.75272
1.76475
1.79455
1.8436
1.91193
1.99902
2.10409
2.22621
2.36423
2.51677
2.68215
2.85814
3.04191
3.23051
3.41908
3.60127
3.7705
3.91922
4.04053
4.12909
4.18196
4.20142
4.19922
4.1829
4.15957
4.13805
4.12397
4.12397
4.16343
4.11012
4.06436
4.00368
3.91644
3.80363
3.66723
3.50989
3.33528
3.1477
2.95179
2.7517
2.55249
2.35945
2.17633
2.00654
1.8532
1.71851
1.60277
1.50533
1.42801
1.37673
1.35543
1.35519
1.37009
1.40414
1.45832
1.53246
1.62598
1.7381
1.86789
2.0143
2.17615
2.35205
2.54026
2.73849
2.94403
3.15323
3.36049
3.5589
3.74046
3.8964
4.01871
4.10136
4.14198
4.1499
4.13749
4.11242
4.08593
4.06757
4.06757
3.89461
3.83361
3.77814
3.70998
3.61572
3.49506
3.349
3.17999
2.99243
2.79159
2.58264
2.37069
2.16146
1.96015
1.77058
1.59599
1.43939
1.30267
1.18584
1.08839
1.01289
0.965397
0.947707
0.950651
0.9698
1.00899
1.06899
1.14953
1.24992
1.3692
1.50647
1.66076
1.83099
2.01598
2.21434
2.42433
2.64348
2.86895
3.0965
3.31986
3.53116
3.7208
3.87849
3.99502
4.06411
4.08811
4.08183
4.05737
4.02583
4.002
4.002
3.59144
3.533
3.48062
3.40721
3.30093
3.16507
3.00317
2.81831
2.61621
2.40268
2.18259
1.96151
1.74539
1.53883
1.34555
1.16866
1.01099
0.87408
0.757639
0.661572
0.589524
0.547516
0.53421
0.540789
0.565156
0.610466
0.677188
0.764911
0.872697
0.999618
1.14471
1.30697
1.48534
1.67874
1.88594
2.10552
2.33565
2.5739
2.81734
3.06075
3.29688
3.51673
3.70876
3.86117
3.96363
4.01039
4.01436
3.9931
3.95676
3.92628
3.92628
3.22485
3.1521
3.09004
3.01067
2.89976
2.75947
2.59259
2.40351
2.19674
1.97796
1.75242
1.52655
1.30696
1.09814
0.903683
0.726652
0.569747
0.434171
0.319422
0.225978
0.158711
0.123457
0.115416
0.126367
0.156893
0.209327
0.283765
0.379538
0.495604
0.631028
0.7847
0.955495
1.14228
1.34394
1.55933
1.7872
2.02629
2.27473
2.53015
2.78895
3.04483
3.28974
3.51258
3.69986
3.8375
3.91399
3.93422
3.91783
3.87773
3.8394
3.8394
2.84003
2.78049
2.73312
2.65081
2.52708
2.36945
2.18365
1.97811
1.75857
1.53079
1.29944
1.07053
0.849501
0.640559
0.446868
0.271396
0.11667
-0.0163746
-0.128295
-0.21786
-0.279076
-0.306584
-0.308654
-0.292497
-0.254694
-0.193994
-0.110723
-0.00587598
0.119557
0.264433
0.427519
0.607571
0.803358
1.01368
1.23738
1.47329
1.72025
1.97684
2.24129
2.51133
2.78228
3.04697
3.29528
3.51377
3.68624
3.7967
3.83872
3.83027
3.78823
3.74129
3.74129
2.37862
2.29234
2.2252
2.13812
2.01882
1.86888
1.6903
1.48893
1.27188
1.04648
0.818271
0.59214
0.373535
0.167101
-0.0239041
-0.196347
-0.347772
-0.477415
-0.585551
-0.669669
-0.72298
-0.742897
-0.738815
-0.715562
-0.669176
-0.599017
-0.505846
-0.390762
-0.254882
-0.0994998
0.0740195
0.264292
0.469953
0.689683
0.922219
1.16637
1.42099
1.68491
1.95677
2.23465
2.51612
2.79553
3.06387
3.30825
3.51275
3.65779
3.72578
3.73008
3.68801
3.63182
3.63182
1.92374
1.87925
1.8408
1.7543
1.62129
1.45094
1.25058
1.02955
0.796516
0.55967
0.326422
0.100193
-0.116588
-0.320037
-0.507517
-0.676038
-0.823381
-0.948972
-1.05247
-1.12962
-1.17326
-1.18535
-1.17479
-1.14273
-1.08624
-1.00534
-0.901018
-0.774354
-0.626669
-0.459459
-0.274274
-0.072672
0.143834
0.373796
0.61586
0.86876
1.13131
1.40237
1.68077
1.96499
2.25353
2.5426
2.82512
3.09012
3.32167
3.49818
3.596
3.61841
3.57653
3.51054
3.51054
1.36983
1.26249
1.19113
1.10321
0.986016
0.8381
0.66157
0.462772
0.248825
0.0261925
-0.197619
-0.415718
-0.62469
-0.822035
-1.00425
-1.16779
-1.3103
-1.43116
-1.52906
-1.59788
-1.63055
-1.63401
-1.61603
-1.57364
-1.50547
-1.4123
-1.29507
-1.15511
-0.994012
-0.813552
-0.615488
-0.401536
-0.173329
0.067597
0.319817
0.582003
0.852914
1.13137
1.41621
1.70609
1.99986
2.29507
2.58645
2.86597
3.11891
3.32302
3.45136
3.49506
3.45571
3.3783
3.3783
0.869308
0.849405
0.828418
0.745144
0.611035
0.436725
0.231227
0.00518774
-0.232014
-0.472127
-0.707605
-0.931854
-1.14068
-1.33472
-1.51248
-1.67114
-1.80867
-1.92427
-2.01511
-2.07351
-2.09552
-2.09004
-2.06201
-2.00742
-1.92588
-1.81841
-1.68631
-1.53135
-1.3555
-1.1607
-0.948858
-0.721761
-0.48112
-0.228527
0.0345227
0.306628
0.586471
0.872805
1.16443
1.46003
1.75861
2.05832
2.35541
2.6438
2.91187
3.13873
3.29599
3.36103
3.32583
3.23502
3.23502
0.203758
0.0672707
0.00250497
-0.0741356
-0.175607
-0.308519
-0.470684
-0.655165
-0.854777
-1.06303
-1.27411
-1.48137
-1.67906
-1.86416
-2.03449
-2.1871
-2.31904
-2.42871
-2.51085
-2.55669
-2.56792
-2.553
-2.51226
-2.4431
-2.34602
-2.22228
-2.07383
-1.90275
-1.71112
-1.50098
-1.27433
-1.03306
-0.778988
-0.513792
-0.239063
0.0437327
0.333231
0.628151
0.927227
1.22919
1.53311
1.83721
2.13865
2.43294
2.70995
2.95143
3.12972
3.21145
3.1859
3.07993
3.07993
-0.302812
-0.274441
-0.265483
-0.333853
-0.457122
-0.625016
-0.82694
-1.05201
-1.29017
-1.53216
-1.77021
-1.99724
-2.2074
-2.39704
-2.5655
-2.7141
-2.84109
-2.94437
-3.01639
-3.04826
-3.04763
-3.02173
-2.96577
-2.87974
-2.76511
-2.62364
-2.45736
-2.26838
-2.05896
-1.83147
-1.58816
-1.33114
-1.0623
-0.783475
-0.496271
-0.202131
0.0976344
0.401774
0.70902
1.01825
1.32831
1.63744
1.94343
2.24195
2.5234
2.77199
2.96428
3.06228
3.05593
2.94058
2.94058
-1.11015
-1.27911
-1.31487
-1.36259
-1.43183
-1.53668
-1.67393
-1.83625
-2.01472
-2.20292
-2.39695
-2.59089
-2.77846
-2.9545
-3.11427
-3.25549
-3.37631
-3.47128
-3.53026
-3.54938
-3.53649
-3.4947
-3.42112
-3.31635
-3.18189
-3.01957
-2.83163
-2.62086
-2.39031
-2.14285
-1.88099
-1.6069
-1.3226
-1.02979
-0.729937
-0.424307
-0.114093
0.199529
0.515397
0.832469
1.14936
1.46445
1.77553
2.07766
2.36224
2.61826
2.8292
2.95572
2.97716
2.86247
2.86247
-1.55726
-1.43354
-1.3788
-1.41915
-1.51806
-1.6709
-1.8621
-2.08376
-2.32103
-2.56678
-2.81523
-3.0572
-3.28357
-3.48671
-3.66116
-3.80529
-3.92302
-4.00938
-4.05349
-4.05865
-4.03224
-3.97214
-3.87751
-3.7493
-3.5892
-3.39992
-3.18531
-2.94963
-2.69635
-2.42825
-2.14772
-1.85687
-1.55766
-1.25136
-0.939188
-0.622263
-0.30167
0.0215376
0.34639
0.671826
0.996506
1.319
1.63672
1.94479
2.23783
2.5112
2.75219
2.91298
2.95915
2.85455
2.85455
-2.59247
-2.80528
-2.80692
-2.80505
-2.8158
-2.86333
-2.94559
-3.06099
-3.20369
-3.36634
-3.54253
-3.72612
-3.90735
-4.08096
-4.23933
-4.37539
-4.48483
-4.55857
-4.5878
-4.57789
-4.5336
-4.45061
-4.3279
-4.16876
-3.97742
-3.75866
-3.51795
-3.25915
-2.98488
-2.69772
-2.40006
-2.09364
-1.77984
-1.45997
-1.13523
-0.806712
-0.475332
-0.141921
0.192795
0.527984
0.862617
1.19545
1.52415
1.84587
2.15983
2.46324
2.73444
2.9292
3.00359
2.92764
2.92764
-2.89234
-2.67207
-2.61796
-2.61563
-2.65773
-2.74875
-2.87737
-3.04363
-3.25322
-3.49625
-3.76042
-4.0368
-4.30085
-4.54774
-4.76322
-4.9341
-5.05343
-5.117
-5.13193
-5.10578
-5.03657
-4.9215
-4.76371
-4.57164
-4.35288
-4.11122
-3.84929
-3.56977
-3.27565
-2.96979
-2.65392
-2.33005
-1.99989
-1.66506
-1.32674
-0.985755
-0.642694
-0.298018
0.0479182
0.394765
0.742173
1.08947
1.43555
1.7806
2.12571
2.46026
2.76712
3.0127
3.13809
3.12893
3.12893
-4.33531
-4.6267
-4.58637
-4.49859
-4.4326
-4.40372
-4.40806
-4.44556
-4.5178
-4.61604
-4.73585
-4.88104
-5.04332
-5.21819
-5.3921
-5.54115
-5.64486
-5.68916
-5.68408
-5.63668
-5.53522
-5.38442
-5.19854
-4.98222
-4.73671
-4.46587
-4.17422
-3.86697
-3.54823
-3.2202
-2.88275
-2.53929
-2.19226
-1.8428
-1.4915
-1.1387
-0.78457
-0.429139
-0.0723021
0.286191
0.646728
1.0098
1.37582
1.74646
2.11998
2.48809
2.84921
3.16685
3.38655
3.51761
3.51761
-4.24631
-4.04787
-3.94188
-3.86243
-3.84338
-3.87419
-3.95445
-4.07708
-4.23015
-4.41196
-4.62355
-4.86504
-5.14438
-5.4469
-5.75741
-6.02225
-6.19312
-6.25834
-6.24056
-6.16698
-6.03425
-5.85425
-5.63794
-5.37687
-5.07726
-4.75364
-4.41613
-4.07056
-3.72007
-3.36587
-3.01066
-2.65423
-2.29675
-1.93843
-1.57934
-1.21949
-0.858792
-0.497004
-0.133727
0.23167
0.600115
0.972922
1.3518
1.7393
2.13526
2.54256
2.96809
3.38232
3.76652
4.15716
4.15716
-6.59759
-6.84699
-6.64999
-6.42863
-6.28544
-6.18736
-6.13552
-6.1206
-6.13043
-6.16311
-6.21616
-6.27935
-6.3551
-6.44477
-6.57704
-6.73568
-6.84076
-6.85426
-6.78527
-6.67279
-6.49848
-6.25413
-5.94747
-5.60735
-5.248
-4.87735
-4.50156
-4.12367
-3.74549
-3.36871
-2.99594
-2.62445
-2.25349
-1.8828
-1.5122
-1.14152
-0.770518
-0.398802
-0.025818
0.349253
0.727608
1.111
1.50206
1.90463
2.3254
2.77361
3.2677
3.80395
4.44159