# vtk DataFile Version 2.0
insac
ASCII
DATASET STRUCTURED_GRID
DIMENSIONS 151 51 1
POINTS 7701 float
0 0 0
0.0703713 0 0
0.140743 0 0
0.211114 0 0
0.281485 0 0
0.351857 0 0
0.422228 0 0
0.492599 0 0
0.562971 0 0
0.633342 0 0
0.703713 0 0
0.774085 0 0
0.844456 0 0
0.914827 0 0
0.985199 0 0
1.05557 0 0
1.12594 0 0
1.19631 0 0
1.26668 0 0
1.33706 0 0
1.40743 0 0
1.4778 0 0
1.54817 0 0
1.61854 0 0
1.68891 0 0
1.75928 0 0
1.82965 0 0
1.90003 0 0
1.9704 0 0
2.04077 -0.00166634 0
2.11114 -0.0125128 0
2.18151 -0.0341173 0
2.25188 -0.0680912 0
2.32225 -0.117717 0
2.39263 -0.176764 0
2.463 -0.235812 0
2.53337 -0.294859 0
2.60374 -0.353906 0
2.67411 -0.412954 0
2.74448 -0.472001 0
2.81485 -0.531049 0
2.88522 -0.590096 0
2.9556 -0.649144 0
3.02597 -0.708191 0
3.09634 -0.767239 0
3.16671 -0.826286 0
3.23708 -0.885317 0
3.30745 -0.934009 0
3.37782 -0.967283 0
3.4482 -0.988302 0
3.51857 -0.998618 0
3.58894 -1 0
3.65931 -1 0
3.72968 -1 0
3.80005 -1 0
3.87042 -1 0
3.94079 -1 0
4.01117 -1 0
4.08154 -1 0
4.15191 -1 0
4.22228 -1 0
4.29265 -1 0
4.36302 -1 0
4.43339 -1 0
4.50377 -1 0
4.57414 -1 0
4.64451 -1 0
4.71488 -1 0
4.78525 -1 0
4.85562 -1 0
4.92599 -1 0
4.99636 -1 0
5.06674 -1 0
5.13711 -1 0
5.20748 -1 0
5.27785 -1 0
5.34822 -1 0
5.41859 -1 0
5.48896 -1 0
5.55934 -1 0
5.62971 -1 0
5.70008 -1 0
5.77045 -1 0
5.84082 -1 0
5.91119 -1 0
5.98156 -1 0
6.05193 -1 0
6.12231 -0.990625 0
6.19268 -0.98125 0
6.26305 -0.971875 0
6.33342 -0.9625 0
6.40379 -0.953125 0
6.47416 -0.94375 0
6.54453 -0.934375 0
6.61491 -0.925 0
6.68528 -0.915625 0
6.75565 -0.90625 0
6.82602 -0.896875 0
6.89639 -0.8875 0
6.96676 -0.878125 0
7.03713 -0.86875 0
7.1075 -0.859375 0
7.17788 -0.85 0
7.24825 -0.840625 0
7.31862 -0.83125 0
7.38899 -0.821875 0
7.45936 -0.8125 0
7.52973 -0.803125 0
7.6001 -0.79375 0
7.67048 -0.784375 0
7.74085 -0.775 0
7.81122 -0.765625 0
7.88159 -0.75625 0
7.95196 -0.746875 0
8.02233 -0.7375 0
8.0927 -0.728125 0
8.16307 -0.71875 0
8.23345 -0.709375 0
8.30382 -0.7 0
8.37419 -0.690625 0
8.44456 -0.68125 0
8.51493 -0.671875 0
8.5853 -0.6625 0
8.65567 -0.653125 0
8.72605 -0.64375 0
8.79642 -0.634375 0
8.86679 -0.625 0
8.93716 -0.615625 0
9.00753 -0.60625 0
9.0779 -0.596875 0
9.14827 -0.5875 0
9.21864 -0.578125 0
9.28902 -0.568749 0
9.35939 -0.559374 0
9.42976 -0.549999 0
9.50013 -0.540624 0
9.5705 -0.531249 0
9.64087 -0.521874 0
9.71124 -0.512499 0
9.78162 -0.503124 0
9.85199 -0.493749 0
9.92236 -0.484374 0
9.99273 -0.474999 0
10.0631 -0.465624 0
10.1335 -0.456249 0
10.2038 -0.446874 0
10.2742 -0.437499 0
10.3446 -0.428124 0
10.415 -0.418749 0
10.4853 -0.409374 0
10.5557 -0.399999 0
0 0.02 0
0.0703713 0.02 0
0.140743 0.02 0
0.211114 0.02 0
0.281485 0.02 0
0.351857 0.02 0
0.422228 0.02 0
0.492599 0.02 0
0.562971 0.02 0
0.633342 0.02 0
0.703713 0.02 0
0.774085 0.02 0
0.844456 0.02 0
0.914827 0.02 0
0.985199 0.02 0
1.05557 0.02 0
1.12594 0.02 0
1.19631 0.02 0
1.26668 0.02 0
1.33706 0.02 0
1.40743 0.02 0
1.4778 0.02 0
1.54817 0.02 0
1.61854 0.02 0
1.68891 0.02 0
1.75928 0.02 0
1.82965 0.02 0
1.90003 0.02 0
1.9704 0.02 0
2.04077 0.018367 0
2.11114 0.00773744 0
2.18151 -0.013435 0
2.25188 -0.0467294 0
2.32225 -0.0953622 0
2.39263 -0.153229 0
2.463 -0.211095 0
2.53337 -0.268962 0
2.60374 -0.326828 0
2.67411 -0.384695 0
2.74448 -0.442561 0
2.81485 -0.500428 0
2.88522 -0.558294 0
2.9556 -0.616161 0
3.02597 -0.674028 0
3.09634 -0.731894 0
3.16671 -0.789761 0
3.23708 -0.847611 0
3.30745 -0.895328 0
3.37782 -0.927937 0
3.4482 -0.948536 0
3.51857 -0.958645 0
3.58894 -0.96 0
3.65931 -0.96 0
3.72968 -0.96 0
3.80005 -0.96 0
3.87042 -0.96 0
3.94079 -0.96 0
4.01117 -0.96 0
4.08154 -0.96 0
4.15191 -0.96 0
4.22228 -0.96 0
4.29265 -0.96 0
4.36302 -0.96 0
4.43339 -0.96 0
4.50377 -0.96 0
4.57414 -0.96 0
4.64451 -0.96 0
4.71488 -0.96 0
4.78525 -0.96 0
4.85562 -0.96 0
4.92599 -0.96 0
4.99636 -0.96 0
5.06674 -0.96 0
5.13711 -0.96 0
5.20748 -0.96 0
5.27785 -0.96 0
5.34822 -0.96 0
5.41859 -0.96 0
5.48896 -0.96 0
5.55934 -0.96 0
5.62971 -0.96 0
5.70008 -0.96 0
5.77045 -0.96 0
5.84082 -0.96 0
5.91119 -0.96 0
5.98156 -0.96 0
6.05193 -0.96 0
6.12231 -0.950812 0
6.19268 -0.941625 0
6.26305 -0.932437 0
6.33342 -0.92325 0
6.40379 -0.914062 0
6.47416 -0.904875 0
6.54453 -0.895687 0
6.61491 -0.8865 0
6.68528 -0.877312 0
6.75565 -0.868125 0
6.82602 -0.858937 0
6.89639 -0.84975 0
6.96676 -0.840562 0
7.03713 -0.831375 0
7.1075 -0.822187 0
7.17788 -0.813 0
7.24825 -0.803812 0
7.31862 -0.794625 0
7.38899 -0.785437 0
7.45936 -0.77625 0
7.52973 -0.767062 0
7.6001 -0.757875 0
7.67048 -0.748687 0
7.74085 -0.7395 0
7.81122 -0.730312 0
7.88159 -0.721125 0
7.95196 -0.711937 0
8.02233 -0.70275 0
8.0927 -0.693562 0
8.16307 -0.684375 0
8.23345 -0.675187 0
8.30382 -0.666 0
8.37419 -0.656812 0
8.44456 -0.647625 0
8.51493 -0.638437 0
8.5853 -0.62925 0
8.65567 -0.620062 0
8.72605 -0.610875 0
8.79642 -0.601687 0
8.86679 -0.5925 0
8.93716 -0.583312 0
9.00753 -0.574125 0
9.0779 -0.564937 0
9.14827 -0.55575 0
9.21864 -0.546562 0
9.28902 -0.537374 0
9.35939 -0.528187 0
9.42976 -0.518999 0
9.50013 -0.509812 0
9.5705 -0.500624 0
9.64087 -0.491437 0
9.71124 -0.482249 0
9.78162 -0.473062 0
9.85199 -0.463874 0
9.92236 -0.454687 0
9.99273 -0.445499 0
10.0631 -0.436312 0
10.1335 -0.427124 0
10.2038 -0.417937 0
10.2742 -0.408749 0
10.3446 -0.399562 0
10.415 -0.390374 0
10.4853 -0.381187 0
10.5557 -0.371999 0
0 0.04 0
0.0703713 0.04 0
0.140743 0.04 0
0.211114 0.04 0
0.281485 0.04 0
0.351857 0.04 0
0.422228 0.04 0
0.492599 0.04 0
0.562971 0.04 0
0.633342 0.04 0
0.703713 0.04 0
0.774085 0.04 0
0.844456 0.04 0
0.914827 0.04 0
0.985199 0.04 0
1.05557 0.04 0
1.12594 0.04 0
1.19631 0.04 0
1.26668 0.04 0
1.33706 0.04 0
1.40743 0.04 0
1.4778 0.04 0
1.54817 0.04 0
1.61854 0.04 0
1.68891 0.04 0
1.75928 0.04 0
1.82965 0.04 0
1.90003 0.04 0
1.9704 0.04 0
2.04077 0.0384003 0
2.11114 0.0279877 0
2.18151 0.00724739 0
2.25188 -0.0253676 0
2.32225 -0.0730079 0
2.39263 -0.129693 0
2.463 -0.186379 0
2.53337 -0.243065 0
2.60374 -0.29975 0
2.67411 -0.356436 0
2.74448 -0.413121 0
2.81485 -0.469807 0
2.88522 -0.526493 0
2.9556 -0.583178 0
3.02597 -0.639864 0
3.09634 -0.696549 0
3.16671 -0.753235 0
3.23708 -0.809904 0
3.30745 -0.856648 0
3.37782 -0.888592 0
3.4482 -0.90877 0
3.51857 -0.918673 0
3.58894 -0.92 0
3.65931 -0.92 0
3.72968 -0.92 0
3.80005 -0.92 0
3.87042 -0.92 0
3.94079 -0.92 0
4.01117 -0.92 0
4.08154 -0.92 0
4.15191 -0.92 0
4.22228 -0.92 0
4.29265 -0.92 0
4.36302 -0.92 0
4.43339 -0.92 0
4.50377 -0.92 0
4.57414 -0.92 0
4.64451 -0.92 0
4.71488 -0.92 0
4.78525 -0.92 0
4.85562 -0.92 0
4.92599 -0.92 0
4.99636 -0.92 0
5.06674 -0.92 0
5.13711 -0.92 0
5.20748 -0.92 0
5.27785 -0.92 0
5.34822 -0.92 0
5.41859 -0.92 0
5.48896 -0.92 0
5.55934 -0.92 0
5.62971 -0.92 0
5.70008 -0.92 0
5.77045 -0.92 0
5.84082 -0.92 0
5.91119 -0.92 0
5.98156 -0.92 0
6.05193 -0.92 0
6.12231 -0.911 0
6.19268 -0.902 0
6.26305 -0.893 0
6.33342 -0.884 0
6.40379 -0.875 0
6.47416 -0.866 0
6.54453 -0.857 0
6.61491 -0.848 0
6.68528 -0.839 0
6.75565 -0.83 0
6.82602 -0.821 0
6.89639 -0.812 0
6.96676 -0.803 0
7.03713 -0.794 0
7.1075 -0.785 0
7.17788 -0.776 0
7.24825 -0.767 0
7.31862 -0.758 0
7.38899 -0.749 0
7.45936 -0.74 0
7.52973 -0.731 0
7.6001 -0.722 0
7.67048 -0.713 0
7.74085 -0.704 0
7.81122 -0.695 0
7.88159 -0.686 0
7.95196 -0.677 0
8.02233 -0.668 0
8.0927 -0.659 0
8.16307 -0.65 0
8.23345 -0.641 0
8.30382 -0.632 0
8.37419 -0.623 0
8.44456 -0.614 0
8.51493 -0.605 0
8.5853 -0.596 0
8.65567 -0.587 0
8.72605 -0.578 0
8.79642 -0.569 0
8.86679 -0.56 0
8.93716 -0.551 0
9.00753 -0.542 0
9.0779 -0.533 0
9.14827 -0.524 0
9.21864 -0.515 0
9.28902 -0.506 0
9.35939 -0.496999 0
9.42976 -0.487999 0
9.50013 -0.478999 0
9.5705 -0.469999 0
9.64087 -0.460999 0
9.71124 -0.451999 0
9.78162 -0.442999 0
9.85199 -0.433999 0
9.92236 -0.424999 0
9.99273 -0.415999 0
10.0631 -0.406999 0
10.1335 -0.397999 0
10.2038 -0.388999 0
10.2742 -0.379999 0
10.3446 -0.370999 0
10.415 -0.361999 0
10.4853 -0.352999 0
10.5557 -0.343999 0
0 0.06 0
0.0703713 0.06 0
0.140743 0.06 0
0.211114 0.06 0
0.281485 0.06 0
0.351857 0.06 0
0.422228 0.06 0
0.492599 0.06 0
0.562971 0.06 0
0.633342 0.06 0
0.703713 0.06 0
0.774085 0.06 0
0.844456 0.06 0
0.914827 0.06 0
0.985199 0.06 0
1.05557 0.06 0
1.12594 0.06 0
1.19631 0.06 0
1.26668 0.06 0
1.33706 0.06 0
1.40743 0.06 0
1.4778 0.06 0
1.54817 0.06 0
1.61854 0.06 0
1.68891 0.06 0
1.75928 0.06 0
1.82965 0.06 0
1.90003 0.06 0
1.9704 0.06 0
2.04077 0.0584336 0
2.11114 0.048238 0
2.18151 0.0279297 0
2.25188 -0.00400573 0
2.32225 -0.0506536 0
2.39263 -0.106158 0
2.463 -0.161663 0
2.53337 -0.217167 0
2.60374 -0.272672 0
2.67411 -0.328177 0
2.74448 -0.383681 0
2.81485 -0.439186 0
2.88522 -0.494691 0
2.9556 -0.550195 0
3.02597 -0.6057 0
3.09634 -0.661204 0
3.16671 -0.716709 0
3.23708 -0.772198 0
3.30745 -0.817968 0
3.37782 -0.849246 0
3.4482 -0.869004 0
3.51857 -0.878701 0
3.58894 -0.88 0
3.65931 -0.88 0
3.72968 -0.88 0
3.80005 -0.88 0
3.87042 -0.88 0
3.94079 -0.88 0
4.01117 -0.88 0
4.08154 -0.88 0
4.15191 -0.88 0
4.22228 -0.88 0
4.29265 -0.88 0
4.36302 -0.88 0
4.43339 -0.88 0
4.50377 -0.88 0
4.57414 -0.88 0
4.64451 -0.88 0
4.71488 -0.88 0
4.78525 -0.88 0
4.85562 -0.88 0
4.92599 -0.88 0
4.99636 -0.88 0
5.06674 -0.88 0
5.13711 -0.88 0
5.20748 -0.88 0
5.27785 -0.88 0
5.34822 -0.88 0
5.41859 -0.88 0
5.48896 -0.88 0
5.55934 -0.88 0
5.62971 -0.88 0
5.70008 -0.88 0
5.77045 -0.88 0
5.84082 -0.88 0
5.91119 -0.88 0
5.98156 -0.88 0
6.05193 -0.88 0
6.12231 -0.871187 0
6.19268 -0.862375 0
6.26305 -0.853562 0
6.33342 -0.84475 0
6.40379 -0.835937 0
6.47416 -0.827125 0
6.54453 -0.818312 0
6.61491 -0.8095 0
6.68528 -0.800687 0
6.75565 -0.791875 0
6.82602 -0.783062 0
6.89639 -0.77425 0
6.96676 -0.765437 0
7.03713 -0.756625 0
7.1075 -0.747812 0
7.17788 -0.739 0
7.24825 -0.730187 0
7.31862 -0.721375 0
7.38899 -0.712562 0
7.45936 -0.70375 0
7.52973 -0.694937 0
7.6001 -0.686125 0
7.67048 -0.677312 0
7.74085 -0.6685 0
7.81122 -0.659687 0
7.88159 -0.650875 0
7.95196 -0.642062 0
8.02233 -0.63325 0
8.0927 -0.624437 0
8.16307 -0.615625 0
8.23345 -0.606812 0
8.30382 -0.598 0
8.37419 -0.589187 0
[...]
POINT_DATA 7701
SCALARS pressure float 1
LOOKUP_TABLE default
0.340259
0.336195
0.330061
0.324531
0.318143
0.311725
0.304777
0.29754
0.289844
0.281747
0.273184
0.264154
0.254628
0.244586
0.234009
0.222865
0.211143
0.198797
0.185824
0.172148
0.157783
0.142595
0.126631
0.10963
0.0917118
0.0723063
0.0517013
0.0283876
0.00299234
-0.0328151
-0.0673743
-0.0805413
-0.0780175
-0.0592979
-0.03378
-0.0162282
-0.00355963
0.00719488
0.0154656
0.0226147
0.0284961
0.0336286
0.0380541
0.042022
0.0455869
0.0489784
0.0517508
0.0533211
0.0544342
0.0555438
0.056521
0.0580369
0.0601804
0.0625291
0.0650593
0.0677026
0.0704208
0.0731888
0.0759699
0.0787458
0.0814871
0.0841784
0.086799
0.0893374
0.0917811
0.0941227
0.0963569
0.0984804
0.100494
0.102398
0.104197
0.105893
0.107498
0.109009
0.110447
0.111798
0.113102
0.114321
0.115525
0.116632
0.117774
0.118775
0.119903
0.120774
0.121957
0.122642
0.124003
0.125385
0.125903
0.126832
0.127361
0.128026
0.128489
0.128968
0.129322
0.129639
0.12986
0.130018
0.130088
0.13008
0.129982
0.129797
0.129517
0.129143
0.128669
0.128094
0.127415
0.126631
0.125741
0.124744
0.12364
0.122428
0.12111
0.119686
0.118158
0.116527
0.114796
0.112967
0.111042
0.109025
0.106916
0.104719
0.102436
0.10007
0.0976221
0.0950957
0.0924911
0.0898116
0.0870564
0.0842292
0.0813274
0.0783562
0.0753095
0.0721958
0.0690034
0.0657473
0.0624055
0.0590055
0.0555072
0.0519612
0.0482943
0.0446005
0.0407451
0.036904
0.0328261
0.028845
0.0244811
0.020386
0.0155731
0.0113969
0.00665734
0.340271
0.336168
0.330007
0.324478
0.318079
0.311657
0.3047
0.297457
0.289752
0.281647
0.273074
0.264034
0.254496
0.244441
0.23385
0.222691
0.210954
0.19859
0.185598
0.1719
0.157512
0.142296
0.126299
0.109255
0.0912852
0.0717973
0.0510796
0.0275367
0.00216526
-0.0319666
-0.0644027
-0.0771519
-0.0759873
-0.0595099
-0.0351618
-0.0175928
-0.00482057
0.00604653
0.0144385
0.0216762
0.0276419
0.0328389
0.0373164
0.0413186
0.044889
0.0482796
0.0511692
0.0529475
0.0542305
0.0554836
0.0566087
0.0581848
0.0602844
0.0625791
0.0650642
0.0676705
0.0703582
0.0731009
0.0758609
0.0786194
0.0813466
0.0840269
0.0866396
0.0891726
0.0916133
0.0939543
0.0961898
0.0983164
0.100335
0.102244
0.10405
0.105754
0.107367
0.108886
0.110333
0.111693
0.113005
0.114232
0.115445
0.116559
0.117711
0.118718
0.119857
0.120737
0.121941
0.122642
0.123946
0.125246
0.12576
0.126701
0.127226
0.127895
0.128353
0.128832
0.129182
0.129497
0.129713
0.129868
0.129933
0.129921
0.129819
0.129629
0.129345
0.128967
0.128489
0.127911
0.127229
0.126442
0.125549
0.12455
0.123443
0.12223
0.12091
0.119485
0.117956
0.116324
0.114593
0.112763
0.110838
0.10882
0.10671
0.104513
0.102229
0.0998625
0.097414
0.0948865
0.0922807
0.0895997
0.0868428
0.0840138
0.0811098
0.0781363
0.075087
0.0719706
0.0687751
0.0655158
0.0621705
0.0587669
0.0552646
0.0517145
0.0480429
0.0443445
0.0404836
0.0366369
0.0325518
0.028563
0.0241874
0.0200773
0.0152475
0.0110445
0.00514216
0.340306
0.336146
0.329944
0.324415
0.318002
0.311574
0.304606
0.297354
0.289639
0.281522
0.272936
0.263883
0.25433
0.244258
0.233648
0.222469
0.21071
0.198322
0.185304
0.171578
0.157158
0.141904
0.125867
0.108769
0.0907346
0.0711504
0.0503124
0.0265594
0.00130919
-0.030495
-0.0600507
-0.0721832
-0.0727122
-0.0594281
-0.0369585
-0.0194896
-0.00662928
0.00438167
0.0129457
0.0203122
0.0264031
0.0316974
0.0362557
0.0403149
0.0439066
0.04728
0.0502974
0.0523504
0.0538718
0.0553227
0.0566512
0.0583141
0.0603664
0.0626078
0.0650435
0.0676099
0.0702639
0.0729792
0.0757162
0.0784563
0.0811688
0.0838381
0.0864429
0.0889711
0.0914098
0.093751
0.095989
0.09812
0.100144
0.102061
0.103876
0.105588
0.107211
0.10874
0.110197
0.111567
0.11289
0.114126
0.115349
0.116471
0.117634
0.118649
0.119803
0.120692
0.12192
0.122633
0.123871
0.125081
0.125585
0.12654
0.127057
0.12773
0.128182
0.128659
0.129003
0.129314
0.129525
0.129674
0.129733
0.129716
0.129608
0.129412
0.129123
0.128739
0.128255
0.127672
0.126985
0.126194
0.125297
0.124294
0.123184
0.121967
0.120644
0.119217
0.117686
0.116052
0.114319
0.112488
0.110561
0.108541
0.10643
0.104231
0.101946
0.0995777
0.0971272
0.0945975
0.0919894
0.0893058
0.086546
0.0837138
0.0808064
0.0778292
0.0747758
0.0716551
0.068455
0.0651909
0.0618403
0.0584314
0.0549231
0.0513672
0.0476888
0.0439838
0.0401148
0.0362606
0.032165
0.0281663
0.0237755
0.0196477
0.0148029
0.0105837
0.00490941
0.340357
0.336162
0.329928
0.324394
0.317974
0.311542
0.304568
0.297311
0.289589
0.281465
0.272871
0.263808
0.254245
0.244161
0.233539
0.222345
0.210571
0.198166
0.185131
0.171385
0.156945
0.141669
0.125608
0.108483
0.090422
0.0708087
0.0499607
0.026277
0.00136003
-0.02875
-0.056456
-0.0682829
-0.0698462
-0.0588476
-0.0379736
-0.020758
-0.00794982
0.00311676
0.0117877
0.0192406
0.0254213
0.0307869
0.0354072
0.0395108
0.0431364
0.0464923
0.0495678
0.051795
0.0534828
0.0550703
0.0565396
0.0582712
0.0603135
0.0625487
0.064966
0.0675186
0.0701587
0.0728639
0.0755926
0.0783269
0.0810354
0.0837024
0.0863064
0.0888352
0.0912754
0.0936193
0.0958608
0.0979958
0.100025
0.101946
0.103767
0.105485
0.107113
0.108648
0.110111
0.111487
0.112815
0.114057
0.115286
0.116413
0.117583
0.118601
0.119764
0.120656
0.121896
0.122601
0.123808
0.124985
0.125473
0.126431
0.126941
0.127615
0.128062
0.128538
0.128878
0.129186
0.129392
0.129538
0.129593
0.129572
0.12946
0.12926
0.128967
0.128578
0.128091
0.127504
0.126813
0.126018
0.125118
0.124111
0.122998
0.121778
0.120453
0.119023
0.117489
0.115853
0.114117
0.112284
0.110355
0.108333
0.10622
0.104019
0.101732
0.0993615
0.0969087
0.0943767
0.0917661
0.0890799
0.0863173
0.0834822
0.0805717
0.0775911
0.0745342
0.0714099
0.0682059
0.0649379
0.0615829
0.0581698
0.0546567
0.0510963
0.0474125
0.0437028
0.0398276
0.0359682
0.0318653
0.0278608
0.0234618
0.0193277
0.0144892
0.0102903
0.00477175
0.340424
0.336198
0.329932
0.324394
0.317967
0.311531
0.304554
0.297291
0.289564
0.281434
0.272832
0.263761
0.254187
0.244092
0.233457
0.22225
0.210461
0.19804
0.184988
0.171225
0.156767
0.141473
0.125394
0.108253
0.0901827
0.0705743
0.0497741
0.0262886
0.00190962
-0.0263375
-0.0522002
-0.0638979
-0.0666161
-0.0579841
-0.0388271
-0.0219451
-0.00924934
0.00183093
0.0105888
0.0181167
0.0243822
0.0298161
0.0344977
0.0386416
0.0423038
0.0456437
0.0487723
0.0511674
0.0530144
0.0547357
0.0563496
0.0581563
0.0601979
0.0624388
0.064845
0.0673912
0.0700229
0.0727234
0.075448
0.0781806
0.0808884
0.0835564
0.0861621
0.0886937
0.0911374
0.0934854
0.0957314
0.0978713
0.0999055
0.101832
0.103658
0.105382
0.107016
0.108556
0.110025
0.111405
0.112739
0.113986
0.115221
0.116351
0.117528
0.118549
0.119721
0.120614
0.121864
0.122558
0.123738
0.124883
0.125354
0.126314
0.126817
0.127492
0.127934
0.128409
0.128745
0.12905
0.129253
0.129395
0.129446
0.129421
0.129304
0.129101
0.128803
0.128411
0.127919
0.127328
0.126633
0.125834
0.12493
0.123919
0.122802
0.121579
0.12025
0.118817
0.11728
0.115641
0.113903
0.112067
0.110135
0.108111
0.105995
0.103792
0.101502
0.0991289
0.0966736
0.0941389
0.0915255
0.0888364
0.0860707
0.0832324
0.0803183
0.0773343
0.0742735
0.0711454
0.0679371
0.0646649
0.0613053
0.0578877
0.0543695
0.0508045
0.0471151
0.0434007
0.0395192
0.0356552
0.0315454
0.0275364
0.0231319
0.018996
0.0141725
0.0100009
0.00463691
0.34051
0.336263
0.329969
0.324426
0.317997
0.311558
0.304579
0.297314
0.289585
0.281451
0.272845
0.263767
0.254187
0.244083
0.233439
0.222222
0.210421
0.197988
0.184924
0.171149
0.15668
0.141377
0.125295
0.108159
0.0901081
0.0705564
0.0498841
0.0267403
0.00302884
-0.0235198
-0.0478553
-0.0595615
-0.0632651
-0.0567291
-0.0392757
-0.0228272
-0.0103025
0.000737958
0.00954518
0.0171227
0.0234544
0.0289432
0.0336782
0.0378552
0.0415564
0.0448745
0.0480211
0.050539
0.0525065
0.0543306
0.0560656
0.0579417
0.0599968
0.0622641
0.0646763
0.0672321
0.069868
0.072575
0.0753049
0.0780439
0.0807578
0.0834323
0.0860443
0.0885821
0.0910319
0.0933855
0.0956369
0.0977818
0.0998206
0.101752
0.103582
0.105309
0.106947
0.10849
0.109962
0.111345
0.112682
0.113931
0.115169
0.116301
0.117483
0.118505
0.119682
0.120573
0.121827
0.122508
0.123669
0.1248
0.125255
0.126217
0.126713
0.127388
0.127827
0.1283
0.128633
0.128936
0.129137
0.129277
0.129325
0.129297
0.129177
0.128971
0.12867
0.128274
0.127779
0.127184
0.126485
0.125683
0.124774
0.12376
0.122639
0.121412
0.12008
0.118643
0.117103
0.115461
0.113719
0.11188
0.109946
0.107918
0.1058
0.103594
0.101301
0.0989254
0.0964673
0.0939299
0.0913136
0.0886216
0.0858529
0.0830114
0.0800941
0.0771067
0.0740424
0.0709107
0.0676985
0.0644224
0.0610586
0.0576371
0.0541143
0.0505454
0.0468512
0.0431331
0.0392465
0.0353793
0.031265
0.0272545
0.0228497
0.0187195
0.0139203
0.00978417
0.00454011
0.340618
0.336356
0.330038
0.324489
0.318059
0.311618
0.30464
0.297374
0.289644
0.281508
0.2729
0.263818
0.254233
0.244123
0.233472
0.222246
0.210437
0.197995
0.184922
0.171138
0.156665
0.141361
0.125285
0.10817
0.090164
0.0707107
0.0502272
0.0275173
0.00456004
-0.0203209
-0.0432072
-0.0549848
-0.0596695
-0.0551619
-0.0394685
-0.0235454
-0.0112278
-0.000263594
0.00856729
0.0161756
0.0225603
0.0280937
0.0328765
0.0370795
0.040819
0.0441162
0.0472714
0.049896
0.0519646
0.0538767
0.0557257
0.0576709
0.0597453
0.0620475
0.0644728
0.0670454
0.0696916
0.0724105
0.0751502
0.0778996
0.0806229
0.0833066
0.0859272
0.0884729
0.0909299
0.0932901
0.0955474
0.0976975
0.099741
0.101676
0.10351
0.10524
0.10688
0.108426
0.1099
0.111285
0.112625
0.113875
0.115116
0.116249
0.117434
0.118455
0.119637
0.120525
0.12178
0.122448
0.123592
0.124712
0.125151
0.126113
0.126605
0.127279
0.127716
0.128188
0.12852
0.128822
0.12902
0.129158
0.129204
0.129174
0.129052
0.128843
0.128538
0.128139
0.127641
0.127042
0.12634
0.125534
0.124621
0.123603
0.122478
0.121248
0.119911
0.11847
0.116926
0.115281
0.113536
0.111694
0.109756
0.107726
0.105605
0.103396
0.101101
0.0987221
0.0962613
0.0937213
0.0911023
0.0884075
0.0856359
0.0827916
0.0798711
0.0768806
0.0738128
0.0706777
0.0674617
0.0641821
0.0608143
0.0573891
0.053862
0.0502895
0.0465908
0.0428696
0.0389787
0.0351095
0.0309923
0.0269828
0.0225812
0.0184614
0.0136916
0.00959235
0.00445501
0.340753
0.336482
0.330142
0.324587
0.318159
0.311717
0.304742
0.297477
0.289749
0.281614
0.273005
0.263922
0.254335
0.244222
0.233567
0.222336
0.210521
0.198073
0.184995
0.171209
0.156736
0.14144
0.125383
0.108307
0.0903727
0.0710592
0.0508207
0.0286178
0.00644855
-0.016893
-0.0384641
-0.0503147
-0.0558762
-0.0532531
-0.0393582
-0.0240692
-0.0119912
-0.00113291
0.00769904
0.0153207
0.0217448
0.0273122
0.0321365
0.0363595
0.0401357
0.0434081
0.0465544
0.0492642
0.0514105
0.0533905
0.0553405
0.0573509
0.0594496
0.0617951
0.0642417
0.0668395
0.0695027
0.0722398
0.0749944
0.0777584
0.0804946
0.0831903
0.0858214
0.0883766
0.0908418
0.093209
0.0954722
0.0976272
0.0996746
0.101613
0.103449
0.105181
0.106823
0.108369
0.109844
0.11123
0.112571
0.11382
0.115063
0.116196
0.117382
0.118403
0.119586
0.120469
0.121724
0.122379
0.123509
0.124623
0.12505
0.126011
0.1265
0.127174
0.12761
0.128082
0.128413
0.128714
0.128911
0.129049
0.129094
0.129062
0.128938
0.128726
0.12842
0.128018
0.127517
0.126914
0.126209
0.125398
0.124482
0.12346
0.122331
0.121096
0.119756
0.118311
0.116763
0.115114
0.113366
0.11152
0.10958
0.107546
0.105423
0.103211
0.100913
0.0985322
0.0960691
0.0935266
0.0909052
0.088208
0.0854339
0.0825869
0.0796638
0.0766704
0.0735996
0.0704614
0.0672421
0.0639593
0.0605878
0.0571593
0.0536284
0.0500529
0.0463504
0.0426268
0.0387328
0.0348631
0.0307449
0.0267389
0.0223445
0.0182392
0.0135023
0.0094398
0.00438882
0.340917
0.336643
0.330283
0.324721
0.318296
0.311854
0.304885
0.297623
0.289899
0.281767
0.273161
0.26408
0.254494
0.24438
0.233723
0.22249
0.210673
0.198222
0.185143
0.171359
0.156893
0.141613
0.125586
0.108566
0.0907258
0.0715865
0.0516356
0.0299857
0.00861003
-0.0133061
-0.0336496
-0.0455423
-0.0518892
-0.0510296
-0.0389754
-0.0244393
-0.0126364
-0.00190719
0.00691028
0.0145329
0.0209861
0.0265783
0.0314387
0.0356762
0.0394881
0.0427357
0.0458653
0.0486503
0.0508594
0.0528932
0.054936
0.0570089
0.0591335
0.0615255
0.0639967
0.0666231
0.0693064
0.0720642
0.0748358
0.077616
0.0803662
0.0830745
0.0857167
0.0882814
0.0907546
0.0931285
0.095397
0.0975562
0.0996068
0.101547
0.103385
0.105118
0.106761
0.108307
0.109783
0.111168
0.112509
0.113759
0.115002
0.116134
0.117322
0.118341
0.119524
0.120403
0.121654
0.122299
0.123417
0.124525
0.12494
0.125901
0.126387
0.127062
0.127498
0.12797
0.128302
0.128603
0.128801
0.128938
0.128982
0.12895
0.128825
0.128612
0.128303
0.127899
0.127394
0.126789
0.126079
0.125265
0.124345
0.123319
0.122186
0.120947
0.119602
0.118154
0.116602
0.114949
0.113197
0.111349
0.109405
0.107369
0.105243
0.103029
0.100729
0.0983455
0.0958804
0.093336
0.0907126
0.0880134
0.0852373
0.0823882
0.0794627
0.076467
0.0733936
0.0702528
0.0670305
0.0637449
0.0603701
0.0569388
0.0534045
0.0498265
0.0461208
0.0423957
0.0384995
0.0346304
0.0305131
0.0265128
0.0221283
0.0180403
0.0133376
0.00931021
0.00433293
0.341115
0.336841
0.330465
0.324895
0.318474
0.312033
0.305071
0.297814
0.290098
0.281971
0.273372
0.264295
0.254713
0.244602
0.233947
0.222715
0.210898
0.198449
0.185373
0.171595
0.157141
0.141885
0.125899
0.108951
0.0912259
0.0722903
0.0526592
0.0315899
0.0109896
-0.00963913
-0.0288571
-0.0407436
-0.047747
-0.048494
-0.0383038
-0.0246485
-0.0131677
-0.00259052
0.00620084
0.0138165
0.0202919
0.0259024
0.0307948
0.0350427
0.0388892
0.0421109
0.0452155
0.0480675
0.0503271
0.0524011
0.0545281
0.0566597
0.0588104
0.0612507
0.0637486
0.0664059
0.0691111
0.071891
0.0746805
0.0774774
0.0802418
0.0829626
0.0856153
0.0881888
0.090669
0.0930484
0.0953212
0.0974833
0.0995359
0.101477
0.103316
0.105048
0.106691
0.108237
0.109712
0.111097
0.112438
0.113686
0.11493
0.116061
0.11725
0.118266
0.11945
0.120323
0.121571
0.122207
0.123313
0.124418
0.124823
0.125784
0.12627
0.126944
0.127382
0.127855
0.128189
0.128491
0.128691
0.128828
0.128873
0.12884
0.128714
0.1285
0.12819
0.127783
0.127276
0.126667
0.125954
0.125137
0.124212
0.123182
0.122045
0.120801
0.119453
0.118
0.116444
0.114788
0.113033
0.111181
0.109235
0.107196
0.105068
0.102852
0.10055
0.0981653
0.0956987
0.0931529
0.0905282
0.0878276
0.08505
0.0821994
0.0792721
0.0762746
0.0731991
0.0700562
0.0668314
0.0635434
0.0601659
0.0567323
0.0531951
0.0496151
0.0459069
0.042181
0.0382836
0.0344163
0.0303016
0.0263088
0.0219365
0.0178677
0.0131993
0.00920444
0.0042878
0.341349
0.337079
0.330687
0.325109
0.318694
0.312255
0.305302
0.298052
0.290346
0.282228
0.273637
0.264569
0.254994
0.244889
0.23424
0.223012
0.211199
0.198755
0.185685
0.171918
0.157483
0.142258
0.126322
0.10946
0.0918673
0.0731583
0.0538683
0.0333898
0.0135337
-0.00593968
-0.0241262
-0.0359595
-0.0434894
-0.0456701
-0.0373423
-0.0246962
-0.0136
-0.00320377
0.00555051
0.0131548
0.0196491
0.0252742
0.0301963
0.0344522
0.0383337
0.0415312
0.0446067
0.047523
0.0498261
0.0519304
0.0541351
0.0563218
0.0584972
0.060985
0.063509
0.0661965
0.0689227
0.0717236
0.0745297
0.0773418
0.0801185
0.0828499
0.0855111
0.0880913
0.0905767
0.0929598
0.095235
0.0973984
0.0994515
0.101393
0.10323
0.104962
0.106604
0.108149
0.109623
0.111007
0.112348
0.113596
0.11484
0.115971
0.11716
0.118175
0.119358
0.120228
0.121472
0.122101
0.123197
0.1243
0.124696
0.125656
0.126143
0.126819
0.12726
0.127735
0.128071
0.128376
0.128577
0.128716
0.128762
0.128729
0.128603
0.128388
0.128076
0.127667
0.127158
0.126546
0.125829
0.125007
0.124079
0.123044
0.121902
0.120654
0.119302
0.117845
0.116286
0.114626
0.112868
0.111013
0.109064
0.107024
0.104893
0.102676
0.100373
0.0979876
0.0955202
0.0929737
0.0903483
0.087647
0.0848686
0.0820171
0.0790888
0.07609
0.0730131
0.0698686
0.0666419
0.063352
0.0599722
0.0565367
0.0529971
0.0494157
0.0457056
0.0419795
0.038082
0.0342175
0.0301068
0.0261229
0.0217644
0.0177156
0.0130805
0.00911554
0.00424995
0.341621
0.337358
0.330952
0.325366
0.318957
0.312521
0.30558
0.298339
0.290645
0.282539
0.273961
0.264904
0.25534
0.245245
0.234604
0.223384
0.211579
0.199143
0.186084
0.172333
0.15792
0.142734
0.126857
0.110092
0.0926456
0.0741803
0.0552432
0.0353524
0.0162004
-0.00224823
-0.0194989
-0.0312396
-0.0391645
-0.042584
-0.0360827
-0.0245645
-0.0139307
-0.00375481
0.0049476
0.0125373
0.0190503
0.0246896
0.0296415
0.0339051
0.0378229
0.040999
0.0440427
0.0470232
0.0493661
0.0514927
0.0537691
0.0560074
0.0582049
0.060738
0.0632864
0.0660017
0.0687468
0.0715659
0.0743858
0.0772099
0.079996
0.0827349
0.0854015
0.0879855
0.0904732
0.0928572
0.0951325
0.0972951
0.099347
0.101287
0.103123
0.104853
0.106493
0.108036
0.10951
0.110894
0.112235
0.113483
0.114729
0.11586
0.11705
0.118065
0.119247
0.120115
0.121355
0.12198
0.123067
0.124169
0.12456
0.125519
0.126009
0.126686
0.127131
0.127609
0.12795
0.128257
0.128462
0.128603
0.12865
0.128618
0.128492
0.128276
0.127963
0.127552
0.127039
0.126424
0.125704
0.124877
0.123945
0.122905
0.121759
0.120507
0.11915
0.117689
0.116126
0.114463
0.112702
0.110845
0.108894
0.106852
0.10472
0.102502
0.100199
0.0978129
0.0953454
0.092799
0.0901737
0.0874725
0.084694
0.0818424
0.0789137
0.0759145
0.0728366
0.0696911
0.0664631
0.0631719
0.0597903
0.0563533
0.0528119
0.0492294
0.0455182
0.0417926
0.0378956
0.0340349
0.0299293
0.0259553
0.0216116
0.017583
0.0129796
0.00904162
0.00421849
0.341932
0.337678
0.33126
0.325667
0.319265
0.312833
0.305904
0.298675
0.290996
0.282905
0.274343
0.265301
0.255752
0.245671
0.235042
0.223834
0.21204
0.199616
0.186571
0.17284
0.158455
0.143313
0.127501
0.110843
0.0935536
0.0753428
0.0567624
0.037445
0.0189522
0.00140696
-0.0149981
-0.0266187
-0.0348209
-0.0392756
-0.0345264
-0.0242342
-0.014152
-0.00424905
0.00437844
0.0119483
0.0184808
0.0241365
0.0291207
0.0333939
0.0373509
0.0405111
0.0435232
0.0465704
0.0489534
0.0510967
0.0534401
0.0557261
0.0579426
0.0605173
0.0630867
0.0658256
0.0685854
0.0714181
0.0742473
0.0770788
0.0798696
0.0826113
0.085279
0.0878628
0.0903491
0.0927309
0.0950034
0.0971629
0.0992117
0.101148
0.102982
0.104709
0.106348
0.107891
0.109365
0.110748
0.112091
0.113341
0.114588
0.115722
0.116914
0.117931
0.119114
0.119981
0.121218
0.121843
0.122923
0.124024
0.124413
0.125372
0.125867
0.126545
0.126997
0.127478
0.127824
0.128135
0.128344
0.128487
0.128537
0.128506
0.128381
0.128164
0.127849
0.127436
0.12692
0.126301
0.125576
0.124746
0.123808
0.122764
0.121613
0.120356
0.118995
0.11753
0.115963
0.114297
0.112533
0.110674
0.108722
0.106678
0.104547
0.102328
0.100025
0.0976398
0.095173
0.0926275
0.090003
0.0873028
0.0845251
0.0816741
0.0787458
0.0757467
0.0726686
0.0695228
0.0662939
0.0630019
0.059619
0.056181
0.0526383
0.0490553
0.0453434
0.0416187
0.0377232
0.0338667
0.0297672
0.0258038
0.0214754
0.0174666
0.0128929
0.00897901
0.00419164
0.342284
0.338041
0.331612
0.326012
0.319618
0.31319
0.306276
0.299061
0.291401
0.283327
0.274785
0.265762
0.256231
0.246168
0.235556
0.224363
0.212584
0.200176
0.187149
0.17344
0.159088
0.143995
0.128254
0.11171
0.0945831
0.0766327
0.0584055
0.039639
0.0217574
0.00500311
-0.0106423
-0.022126
-0.0305056
-0.0357916
-0.0326823
-0.023684
-0.0142464
-0.00468153
0.00383671
0.0113754
0.017927
0.0236029
0.0286238
0.032911
0.0369112
0.0400633
0.0430464
0.0461644
0.0485902
0.0507466
0.0531525
0.0554825
0.0577141
0.0603257
0.0629115
0.0656685
0.0684376
0.0712779
0.0741105
0.0769433
0.079733
0.082472
0.0851356
0.0877142
0.0901948
0.0925707
0.0948372
0.096991
0.0990348
0.100967
0.102797
0.104523
0.10616
0.107702
0.109177
0.110563
0.111909
0.113162
0.114414
0.115552
0.116749
0.117769
0.118955
0.119826
0.12106
0.121689
0.122764
0.123867
0.124257
0.125217
0.125719
0.1264
0.126859
0.127345
0.127697
0.128012
0.128226
0.128372
0.128425
0.128395
0.12827
0.128052
0.127736
0.12732
0.1268
0.126177
0.125448
0.124613
0.12367
0.122621
0.121464
0.120203
0.118837
0.117368
0.115797
0.114128
0.112362
0.110501
0.108548
0.106504
0.104372
0.102155
0.0998525
0.0974684
0.0950032
0.0924593
0.0898366
0.0871381
0.084362
0.0815125
0.0785853
0.075587
0.0725094
0.0693638
0.0661347
0.0628423
0.0594587
0.0560201
0.0524765
0.0488934
0.0451812
0.041458
0.0375644
0.0337127