# vtk DataFile Version 2.0
insac
ASCII
DATASET STRUCTURED_GRID
DIMENSIONS 151 51 1
POINTS 7701 float
0 0 0
0.0703713 0 0
0.140743 0 0
0.211114 0 0
0.281485 0 0
0.351857 0 0
0.422228 0 0
0.492599 0 0
0.562971 0 0
0.633342 0 0
0.703713 0 0
0.774085 0 0
0.844456 0 0
0.914827 0 0
0.985199 0 0
1.05557 0 0
1.12594 0 0
1.19631 0 0
1.26668 0 0
1.33706 0 0
1.40743 0 0
1.4778 0 0
1.54817 0 0
1.61854 0 0
1.68891 0 0
1.75928 0 0
1.82965 0 0
1.90003 0 0
1.9704 0 0
2.04077 -0.00166634 0
2.11114 -0.0125128 0
2.18151 -0.0341173 0
2.25188 -0.0680912 0
2.32225 -0.117717 0
2.39263 -0.176764 0
2.463 -0.235812 0
2.53337 -0.294859 0
2.60374 -0.353906 0
2.67411 -0.412954 0
2.74448 -0.472001 0
2.81485 -0.531049 0
2.88522 -0.590096 0
2.9556 -0.649144 0
3.02597 -0.708191 0
3.09634 -0.767239 0
3.16671 -0.826286 0
3.23708 -0.885317 0
3.30745 -0.934009 0
3.37782 -0.967283 0
3.4482 -0.988302 0
3.51857 -0.998618 0
3.58894 -1 0
3.65931 -1 0
3.72968 -1 0
3.80005 -1 0
3.87042 -1 0
3.94079 -1 0
4.01117 -1 0
4.08154 -1 0
4.15191 -1 0
4.22228 -1 0
4.29265 -1 0
4.36302 -1 0
4.43339 -1 0
4.50377 -1 0
4.57414 -1 0
4.64451 -1 0
4.71488 -1 0
4.78525 -1 0
4.85562 -1 0
4.92599 -1 0
4.99636 -1 0
5.06674 -1 0
5.13711 -1 0
5.20748 -1 0
5.27785 -1 0
5.34822 -1 0
5.41859 -1 0
5.48896 -1 0
5.55934 -1 0
5.62971 -1 0
5.70008 -1 0
5.77045 -1 0
5.84082 -1 0
5.91119 -1 0
5.98156 -1 0
6.05193 -1 0
6.12231 -0.990625 0
6.19268 -0.98125 0
6.26305 -0.971875 0
6.33342 -0.9625 0
6.40379 -0.953125 0
6.47416 -0.94375 0
6.54453 -0.934375 0
6.61491 -0.925 0
6.68528 -0.915625 0
6.75565 -0.90625 0
6.82602 -0.896875 0
6.89639 -0.8875 0
6.96676 -0.878125 0
7.03713 -0.86875 0
7.1075 -0.859375 0
7.17788 -0.85 0
7.24825 -0.840625 0
7.31862 -0.83125 0
7.38899 -0.821875 0
7.45936 -0.8125 0
7.52973 -0.803125 0
7.6001 -0.79375 0
7.67048 -0.784375 0
7.74085 -0.775 0
7.81122 -0.765625 0
7.88159 -0.75625 0
7.95196 -0.746875 0
8.02233 -0.7375 0
8.0927 -0.728125 0
8.16307 -0.71875 0
8.23345 -0.709375 0
8.30382 -0.7 0
8.37419 -0.690625 0
8.44456 -0.68125 0
8.51493 -0.671875 0
8.5853 -0.6625 0
8.65567 -0.653125 0
8.72605 -0.64375 0
8.79642 -0.634375 0
8.86679 -0.625 0
8.93716 -0.615625 0
9.00753 -0.60625 0
9.0779 -0.596875 0
9.14827 -0.5875 0
9.21864 -0.578125 0
9.28902 -0.568749 0
9.35939 -0.559374 0
9.42976 -0.549999 0
9.50013 -0.540624 0
9.5705 -0.531249 0
9.64087 -0.521874 0
9.71124 -0.512499 0
9.78162 -0.503124 0
9.85199 -0.493749 0
9.92236 -0.484374 0
9.99273 -0.474999 0
10.0631 -0.465624 0
10.1335 -0.456249 0
10.2038 -0.446874 0
10.2742 -0.437499 0
10.3446 -0.428124 0
10.415 -0.418749 0
10.4853 -0.409374 0
10.5557 -0.399999 0
0 0.02 0
0.0703713 0.02 0
0.140743 0.02 0
0.211114 0.02 0
0.281485 0.02 0
0.351857 0.02 0
0.422228 0.02 0
0.492599 0.02 0
0.562971 0.02 0
0.633342 0.02 0
0.703713 0.02 0
0.774085 0.02 0
0.844456 0.02 0
0.914827 0.02 0
0.985199 0.02 0
1.05557 0.02 0
1.12594 0.02 0
1.19631 0.02 0
1.26668 0.02 0
1.33706 0.02 0
1.40743 0.02 0
1.4778 0.02 0
1.54817 0.02 0
1.61854 0.02 0
1.68891 0.02 0
1.75928 0.02 0
1.82965 0.02 0
1.90003 0.02 0
1.9704 0.02 0
2.04077 0.018367 0
2.11114 0.00773744 0
2.18151 -0.013435 0
2.25188 -0.0467294 0
2.32225 -0.0953622 0
2.39263 -0.153229 0
2.463 -0.211095 0
2.53337 -0.268962 0
2.60374 -0.326828 0
2.67411 -0.384695 0
2.74448 -0.442561 0
2.81485 -0.500428 0
2.88522 -0.558294 0
2.9556 -0.616161 0
3.02597 -0.674028 0
3.09634 -0.731894 0
3.16671 -0.789761 0
3.23708 -0.847611 0
3.30745 -0.895328 0
3.37782 -0.927937 0
3.4482 -0.948536 0
3.51857 -0.958645 0
3.58894 -0.96 0
3.65931 -0.96 0
3.72968 -0.96 0
3.80005 -0.96 0
3.87042 -0.96 0
3.94079 -0.96 0
4.01117 -0.96 0
4.08154 -0.96 0
4.15191 -0.96 0
4.22228 -0.96 0
4.29265 -0.96 0
4.36302 -0.96 0
4.43339 -0.96 0
4.50377 -0.96 0
4.57414 -0.96 0
4.64451 -0.96 0
4.71488 -0.96 0
4.78525 -0.96 0
4.85562 -0.96 0
4.92599 -0.96 0
4.99636 -0.96 0
5.06674 -0.96 0
5.13711 -0.96 0
5.20748 -0.96 0
5.27785 -0.96 0
5.34822 -0.96 0
5.41859 -0.96 0
5.48896 -0.96 0
5.55934 -0.96 0
5.62971 -0.96 0
5.70008 -0.96 0
5.77045 -0.96 0
5.84082 -0.96 0
5.91119 -0.96 0
5.98156 -0.96 0
6.05193 -0.96 0
6.12231 -0.950812 0
6.19268 -0.941625 0
6.26305 -0.932437 0
6.33342 -0.92325 0
6.40379 -0.914062 0
6.47416 -0.904875 0
6.54453 -0.895687 0
6.61491 -0.8865 0
6.68528 -0.877312 0
6.75565 -0.868125 0
6.82602 -0.858937 0
6.89639 -0.84975 0
6.96676 -0.840562 0
7.03713 -0.831375 0
7.1075 -0.822187 0
7.17788 -0.813 0
7.24825 -0.803812 0
7.31862 -0.794625 0
7.38899 -0.785437 0
7.45936 -0.77625 0
7.52973 -0.767062 0
7.6001 -0.757875 0
7.67048 -0.748687 0
7.74085 -0.7395 0
7.81122 -0.730312 0
7.88159 -0.721125 0
7.95196 -0.711937 0
8.02233 -0.70275 0
8.0927 -0.693562 0
8.16307 -0.684375 0
8.23345 -0.675187 0
8.30382 -0.666 0
8.37419 -0.656812 0
8.44456 -0.647625 0
8.51493 -0.638437 0
8.5853 -0.62925 0
8.65567 -0.620062 0
8.72605 -0.610875 0
8.79642 -0.601687 0
8.86679 -0.5925 0
8.93716 -0.583312 0
9.00753 -0.574125 0
9.0779 -0.564937 0
9.14827 -0.55575 0
9.21864 -0.546562 0
9.28902 -0.537374 0
9.35939 -0.528187 0
9.42976 -0.518999 0
9.50013 -0.509812 0
9.5705 -0.500624 0
9.64087 -0.491437 0
9.71124 -0.482249 0
9.78162 -0.473062 0
9.85199 -0.463874 0
9.92236 -0.454687 0
9.99273 -0.445499 0
10.0631 -0.436312 0
10.1335 -0.427124 0
10.2038 -0.417937 0
10.2742 -0.408749 0
10.3446 -0.399562 0
10.415 -0.390374 0
10.4853 -0.381187 0
10.5557 -0.371999 0
0 0.04 0
0.0703713 0.04 0
0.140743 0.04 0
0.211114 0.04 0
0.281485 0.04 0
0.351857 0.04 0
0.422228 0.04 0
0.492599 0.04 0
0.562971 0.04 0
0.633342 0.04 0
0.703713 0.04 0
0.774085 0.04 0
0.844456 0.04 0
0.914827 0.04 0
0.985199 0.04 0
1.05557 0.04 0
1.12594 0.04 0
1.19631 0.04 0
1.26668 0.04 0
1.33706 0.04 0
1.40743 0.04 0
1.4778 0.04 0
1.54817 0.04 0
1.61854 0.04 0
1.68891 0.04 0
1.75928 0.04 0
1.82965 0.04 0
1.90003 0.04 0
1.9704 0.04 0
2.04077 0.0384003 0
2.11114 0.0279877 0
2.18151 0.00724739 0
2.25188 -0.0253676 0
2.32225 -0.0730079 0
2.39263 -0.129693 0
2.463 -0.186379 0
2.53337 -0.243065 0
2.60374 -0.29975 0
2.67411 -0.356436 0
2.74448 -0.413121 0
2.81485 -0.469807 0
2.88522 -0.526493 0
2.9556 -0.583178 0
3.02597 -0.639864 0
3.09634 -0.696549 0
3.16671 -0.753235 0
3.23708 -0.809904 0
3.30745 -0.856648 0
3.37782 -0.888592 0
3.4482 -0.90877 0
3.51857 -0.918673 0
3.58894 -0.92 0
3.65931 -0.92 0
3.72968 -0.92 0
3.80005 -0.92 0
3.87042 -0.92 0
3.94079 -0.92 0
4.01117 -0.92 0
4.08154 -0.92 0
4.15191 -0.92 0
4.22228 -0.92 0
4.29265 -0.92 0
4.36302 -0.92 0
4.43339 -0.92 0
4.50377 -0.92 0
4.57414 -0.92 0
4.64451 -0.92 0
4.71488 -0.92 0
4.78525 -0.92 0
4.85562 -0.92 0
4.92599 -0.92 0
4.99636 -0.92 0
5.06674 -0.92 0
5.13711 -0.92 0
5.20748 -0.92 0
5.27785 -0.92 0
5.34822 -0.92 0
5.41859 -0.92 0
5.48896 -0.92 0
5.55934 -0.92 0
5.62971 -0.92 0
5.70008 -0.92 0
5.77045 -0.92 0
5.84082 -0.92 0
5.91119 -0.92 0
5.98156 -0.92 0
6.05193 -0.92 0
6.12231 -0.911 0
6.19268 -0.902 0
6.26305 -0.893 0
6.33342 -0.884 0
6.40379 -0.875 0
6.47416 -0.866 0
6.54453 -0.857 0
6.61491 -0.848 0
6.68528 -0.839 0
6.75565 -0.83 0
6.82602 -0.821 0
6.89639 -0.812 0
6.96676 -0.803 0
7.03713 -0.794 0
7.1075 -0.785 0
7.17788 -0.776 0
7.24825 -0.767 0
7.31862 -0.758 0
7.38899 -0.749 0
7.45936 -0.74 0
7.52973 -0.731 0
7.6001 -0.722 0
7.67048 -0.713 0
7.74085 -0.704 0
7.81122 -0.695 0
7.88159 -0.686 0
7.95196 -0.677 0
8.02233 -0.668 0
8.0927 -0.659 0
8.16307 -0.65 0
8.23345 -0.641 0
8.30382 -0.632 0
8.37419 -0.623 0
8.44456 -0.614 0
8.51493 -0.605 0
8.5853 -0.596 0
8.65567 -0.587 0
8.72605 -0.578 0
8.79642 -0.569 0
8.86679 -0.56 0
8.93716 -0.551 0
9.00753 -0.542 0
9.0779 -0.533 0
9.14827 -0.524 0
9.21864 -0.515 0
9.28902 -0.506 0
9.35939 -0.496999 0
9.42976 -0.487999 0
9.50013 -0.478999 0
9.5705 -0.469999 0
9.64087 -0.460999 0
9.71124 -0.451999 0
9.78162 -0.442999 0
9.85199 -0.433999 0
9.92236 -0.424999 0
9.99273 -0.415999 0
10.0631 -0.406999 0
10.1335 -0.397999 0
10.2038 -0.388999 0
10.2742 -0.379999 0
10.3446 -0.370999 0
10.415 -0.361999 0
10.4853 -0.352999 0
10.5557 -0.343999 0
0 0.06 0
0.0703713 0.06 0
0.140743 0.06 0
0.211114 0.06 0
0.281485 0.06 0
0.351857 0.06 0
0.422228 0.06 0
0.492599 0.06 0
0.562971 0.06 0
0.633342 0.06 0
0.703713 0.06 0
0.774085 0.06 0
0.844456 0.06 0
0.914827 0.06 0
0.985199 0.06 0
1.05557 0.06 0
1.12594 0.06 0
1.19631 0.06 0
1.26668 0.06 0
1.33706 0.06 0
1.40743 0.06 0
1.4778 0.06 0
1.54817 0.06 0
1.61854 0.06 0
1.68891 0.06 0
1.75928 0.06 0
1.82965 0.06 0
1.90003 0.06 0
1.9704 0.06 0
2.04077 0.0584336 0
2.11114 0.048238 0
2.18151 0.0279297 0
2.25188 -0.00400573 0
2.32225 -0.0506536 0
2.39263 -0.106158 0
2.463 -0.161663 0
2.53337 -0.217167 0
2.60374 -0.272672 0
2.67411 -0.328177 0
2.74448 -0.383681 0
2.81485 -0.439186 0
2.88522 -0.494691 0
2.9556 -0.550195 0
3.02597 -0.6057 0
3.09634 -0.661204 0
3.16671 -0.716709 0
3.23708 -0.772198 0
3.30745 -0.817968 0
3.37782 -0.849246 0
3.4482 -0.869004 0
3.51857 -0.878701 0
3.58894 -0.88 0
3.65931 -0.88 0
3.72968 -0.88 0
3.80005 -0.88 0
3.87042 -0.88 0
3.94079 -0.88 0
4.01117 -0.88 0
4.08154 -0.88 0
4.15191 -0.88 0
4.22228 -0.88 0
4.29265 -0.88 0
4.36302 -0.88 0
4.43339 -0.88 0
4.50377 -0.88 0
4.57414 -0.88 0
4.64451 -0.88 0
4.71488 -0.88 0
4.78525 -0.88 0
4.85562 -0.88 0
4.92599 -0.88 0
4.99636 -0.88 0
5.06674 -0.88 0
5.13711 -0.88 0
5.20748 -0.88 0
5.27785 -0.88 0
5.34822 -0.88 0
5.41859 -0.88 0
5.48896 -0.88 0
5.55934 -0.88 0
5.62971 -0.88 0
5.70008 -0.88 0
5.77045 -0.88 0
5.84082 -0.88 0
5.91119 -0.88 0
5.98156 -0.88 0
6.05193 -0.88 0
6.12231 -0.871187 0
6.19268 -0.862375 0
6.26305 -0.853562 0
6.33342 -0.84475 0
6.40379 -0.835937 0
6.47416 -0.827125 0
6.54453 -0.818312 0
6.61491 -0.8095 0
6.68528 -0.800687 0
6.75565 -0.791875 0
6.82602 -0.783062 0
6.89639 -0.77425 0
6.96676 -0.765437 0
7.03713 -0.756625 0
7.1075 -0.747812 0
7.17788 -0.739 0
7.24825 -0.730187 0
7.31862 -0.721375 0
7.38899 -0.712562 0
7.45936 -0.70375 0
7.52973 -0.694937 0
7.6001 -0.686125 0
7.67048 -0.677312 0
7.74085 -0.6685 0
7.81122 -0.659687 0
7.88159 -0.650875 0
7.95196 -0.642062 0
8.02233 -0.63325 0
8.0927 -0.624437 0
8.16307 -0.615625 0
8.23345 -0.606812 0
8.30382 -0.598 0
8.37419 -0.589187 0
[...]
POINT_DATA 7701
SCALARS pressure float 1
LOOKUP_TABLE default
0.255863
0.253295
0.248839
0.245315
0.242472
0.240454
0.239181
0.238555
0.238444
0.238703
0.239185
0.239745
0.240245
0.240556
0.24055
0.240105
0.239096
0.23739
0.234847
0.231304
0.22659
0.220491
0.212783
0.203155
0.191306
0.176686
0.158816
0.136366
0.108057
0.0664461
0.0172112
-0.0218706
-0.0458271
-0.049374
-0.0354177
-0.0192017
-0.00616505
0.00538636
0.015442
0.0243621
0.0323272
0.0394802
0.0459244
0.0517313
0.0569863
0.0617632
0.0661688
0.0697576
0.0725666
0.0752083
0.0779444
0.0807807
0.0835384
0.0860667
0.0881507
0.0897119
0.0906776
0.0910228
0.0907456
0.0898719
0.0884485
0.0865392
0.0842203
0.0815758
0.0786938
0.075662
0.0725653
0.0694832
0.0664875
0.0636418
0.0610001
0.0586067
0.0564968
0.0546954
0.0532198
0.0520776
0.0512718
0.0507941
0.0506393
0.0507815
0.0512214
0.0518981
0.0528645
0.0539343
0.0554349
0.0565814
0.058967
0.0612751
0.0620223
0.0631498
0.0641016
0.0651523
0.0662457
0.0674135
0.0686463
0.0699425
0.0712939
0.0726923
0.0741288
0.0755942
0.0770799
0.0785778
0.0800805
0.0815818
0.083076
0.0845586
0.0860258
0.0874744
0.0889016
0.0903051
0.0916828
0.093032
0.09435
0.0956333
0.0968775
0.0980769
0.0992247
0.100312
0.101329
0.102263
0.103101
0.103827
0.104424
0.104873
0.105153
0.105246
0.105129
0.104782
0.104184
0.103316
0.102159
0.100698
0.0989196
0.0968113
0.0943647
0.0915747
0.0884376
0.0849547
0.0811257
0.0769595
0.0724543
0.0676296
0.0624703
0.0570186
0.051215
0.0451662
0.0386766
0.0320611
0.0246409
0.0174995
0.00914463
0.256023
0.253437
0.248994
0.245525
0.242715
0.240716
0.239448
0.238815
0.238687
0.23892
0.239369
0.23989
0.240348
0.240612
0.240558
0.240063
0.239001
0.23724
0.234639
0.231037
0.22626
0.220093
0.212312
0.2026
0.190654
0.175908
0.157872
0.13515
0.106736
0.0663225
0.0191515
-0.0186343
-0.0427721
-0.0479127
-0.0354948
-0.0198531
-0.00694827
0.00456668
0.0146315
0.0235719
0.0315632
0.0387451
0.0452208
0.0510596
0.0563446
0.0611281
0.0655664
0.0692585
0.0721705
0.0748721
0.077633
0.0804277
0.0831055
0.0855732
0.0876122
0.0891463
0.0901004
0.0904483
0.0901862
0.0893387
0.0879507
0.0860844
0.0838144
0.0812232
0.0783974
0.0754233
0.0723847
0.0693598
0.0664198
0.0636274
0.0610361
0.0586897
0.0566229
0.0548607
0.0534201
0.0523086
0.0515294
0.0510738
0.0509376
0.051094
0.0515458
0.0522292
0.0532053
0.0542753
0.0557957
0.0569223
0.0591513
0.0613138
0.0620708
0.0632585
0.0642411
0.0653206
0.0664328
0.0676143
0.0688558
0.0701568
0.0715097
0.0729068
0.0743396
0.0757994
0.0772779
0.0787672
0.0802605
0.0817515
0.0832349
0.0847062
0.0861617
0.0875983
0.0890134
0.0904046
0.0917695
0.0931058
0.0944104
0.0956798
0.0969096
0.098094
0.0992259
0.100297
0.101296
0.102213
0.103032
0.103738
0.104314
0.104742
0.105001
0.105072
0.104934
0.104565
0.103946
0.103057
0.101881
0.100402
0.0986051
0.0964803
0.0940187
0.0912151
0.0880658
0.0845722
0.0807338
0.0765594
0.0720468
0.0672157
0.0620496
0.0565918
0.0507793
0.0447222
0.038215
0.0315829
0.0241247
0.0169693
0.00706241
0.256272
0.253658
0.249241
0.245858
0.243108
0.241147
0.239895
0.239257
0.239105
0.2393
0.239696
0.240155
0.240543
0.24073
0.240594
0.240012
0.23886
0.237007
0.23431
0.230607
0.225726
0.219447
0.211547
0.201701
0.189603
0.174666
0.156397
0.13334
0.104909
0.0666239
0.0229148
-0.0127339
-0.0370853
-0.0449488
-0.0353693
-0.0208744
-0.00827053
0.00314954
0.0132202
0.0221941
0.0302331
0.0374687
0.0440036
0.0499021
0.0552486
0.0600429
0.064528
0.0683939
0.0714767
0.074279
0.0771012
0.0798557
0.0824278
0.0848214
0.0868024
0.0883014
0.0892399
0.0895908
0.0893481
0.0885344
0.0871926
0.0853832
0.0831787
0.0806597
0.0779109
0.0750171
0.0720603
0.0691174
0.0662584
0.0635447
0.0610291
0.0587544
0.056755
0.055055
0.0536715
0.0526112
0.0518778
0.0514618
0.05136
0.051544
0.0520205
0.0527198
0.053716
0.0547887
0.0563361
0.0574303
0.0594414
0.0614119
0.0621793
0.063444
0.0644704
0.065592
0.0667333
0.067937
0.0691934
0.0705034
0.07186
0.0732563
0.0746844
0.0761362
0.0776039
0.0790803
0.0805586
0.0820332
0.0834991
0.084952
0.0863884
0.0878053
0.0892002
0.0905707
0.0919145
0.0932291
0.0945115
0.0957579
0.0969638
0.0981233
0.0992294
0.100273
0.101245
0.102131
0.102919
0.103594
0.104137
0.104531
0.104756
0.104792
0.104618
0.104214
0.10356
0.102638
0.101428
0.0999172
0.0980904
0.0959374
0.0934495
0.0906219
0.0874507
0.0839376
0.0800816
0.075892
0.0713652
0.0665219
0.0613429
0.0558741
0.0500458
0.0439757
0.0374404
0.0307879
0.0232841
0.0161366
0.00667647
0.256412
0.253795
0.249402
0.246082
0.24339
0.241472
0.240247
0.239619
0.239461
0.239635
0.239998
0.240414
0.240749
0.240877
0.240677
0.240027
0.238805
0.236878
0.234106
0.230326
0.225365
0.219004
0.21102
0.201083
0.18889
0.173849
0.155495
0.132418
0.104313
0.0679527
0.02697
-0.00713195
-0.0316106
-0.0417149
-0.0347832
-0.0215165
-0.00930073
0.00197154
0.0120169
0.0210064
0.0290811
0.0363614
0.0429483
0.0488998
0.0543097
0.0591121
0.0636211
0.0676245
0.0708374
0.0737157
0.0766127
0.0793734
0.0818958
0.0842638
0.0862184
0.0876996
0.0886278
0.0889759
0.0887377
0.0879354
0.0866117
0.0848265
0.0826518
0.080168
0.0774589
0.0746087
0.0716988
0.0688054
0.0659975
0.0633361
0.060873
0.0586507
0.0567027
0.0550528
0.0537175
0.052703
0.0520128
0.0516366
0.0515721
0.0517884
0.0522957
0.0530179
0.0540392
0.0551203
0.0566802
0.0577507
0.0596463
0.0615332
0.0623014
0.0635971
0.064654
0.065804
0.0669692
0.0681923
0.0694634
0.0707837
0.0721466
0.0735455
0.0749727
0.0764206
0.0778818
0.0793493
0.0808169
0.0822792
0.0837314
0.0851696
0.0865905
0.0879912
0.0893693
0.0907226
0.0920487
0.0933452
0.0946089
0.0958363
0.0970227
0.0981621
0.0992473
0.10027
0.101219
0.102082
0.102847
0.103496
0.104014
0.104382
0.10458
0.104589
0.104387
0.103955
0.103274
0.102323
0.101087
0.0995486
0.0976959
0.0955181
0.0930066
0.0901568
0.0869649
0.0834327
0.0795592
0.0753539
0.0708124
0.0659565
0.0607644
0.0552855
0.0494433
0.0433651
0.0368118
0.0301568
0.0226496
0.0155573
0.00642592
0.256438
0.253839
0.249484
0.246219
0.243594
0.24173
0.240546
0.239944
0.239796
0.239965
0.24031
0.240696
0.240991
0.241071
0.240817
0.240109
0.238825
0.236834
0.233996
0.230149
0.225121
0.218692
0.210641
0.200637
0.188387
0.173302
0.154961
0.132066
0.104547
0.0701759
0.0317604
-0.00101217
-0.0256803
-0.0379446
-0.0337496
-0.0218985
-0.010178
0.000885228
0.010869
0.0198528
0.0279498
0.035266
0.0418995
0.0478991
0.0533746
0.0581857
0.062709
0.0668407
0.0701721
0.0731141
0.0760873
0.078865
0.081347
0.083696
0.0856254
0.0870851
0.0879954
0.0883304
0.0880843
0.0872796
0.0859593
0.0841834
0.0820243
0.0795618
0.0768797
0.0740618
0.0711889
0.0683366
0.0655733
0.0629592
0.0605455
0.058374
0.0564777
0.0548796
0.053596
0.052632
0.0519912
0.051662
0.0516428
0.0519002
0.0524474
0.0532015
0.0542551
0.0553521
0.0569235
0.0579809
0.0597902
0.0616256
0.0624013
0.063721
0.0648131
0.0659928
0.0671855
0.0684314
0.0697211
0.0710557
0.0724285
0.0738334
0.0752629
0.0767097
0.0781667
0.0796274
0.0810859
0.0825371
0.0839765
0.0854007
0.0868063
0.088191
0.0895524
0.0908883
0.0921966
0.0934749
0.0947201
0.0959285
0.0970955
0.098215
0.0992799
0.100281
0.101209
0.10205
0.102792
0.103418
0.103911
0.104254
0.104426
0.104409
0.10418
0.103721
0.103012
0.102034
0.100769
0.0992041
0.0973247
0.0951208
0.0925843
0.0897106
0.0864962
0.0829432
0.0790502
0.0748276
0.0702699
0.0654005
0.060195
0.0547067
0.0488525
0.0427704
0.0362071
0.0295626
0.0220767
0.0150581
0.00621619
0.256317
0.253756
0.249454
0.246244
0.243696
0.241902
0.240778
0.240221
0.240104
0.240288
0.240634
0.241006
0.241276
0.241323
0.241027
0.240272
0.238937
0.236892
0.233999
0.230097
0.225014
0.218531
0.210431
0.200386
0.188112
0.173042
0.154806
0.132253
0.105498
0.0730923
0.0370908
0.00554396
-0.0192764
-0.0335568
-0.0321707
-0.0219593
-0.0108648
-7.67692e-05
0.00980701
0.0187634
0.0268697
0.0342134
0.0408886
0.046932
0.0524752
0.0572982
0.0618273
0.0660777
0.0695172
0.0725097
0.0755532
0.0783528
0.0807989
0.0831287
0.085028
0.086456
0.0873349
0.0876404
0.0873683
0.0865422
0.0852061
0.0834208
0.0812589
0.0788007
0.0761299
0.07333
0.0704815
0.0676593
0.0649314
0.0623572
0.0599873
0.0578627
0.0560159
0.0544692
0.0532384
0.0523279
0.051741
0.0514646
0.0514981
0.0518049
0.0524009
0.0531965
0.0542905
0.0554137
0.0570003
0.0580652
0.0598238
0.0616421
0.0624402
0.0637812
0.0649135
0.0661256
0.0673505
0.0686239
0.0699373
0.0712913
0.0726793
0.0740952
0.0755318
0.076982
0.078439
0.0798966
0.0813493
0.0827923
0.0842216
0.0856339
0.0870263
0.0883966
0.0897427
0.0910627
0.0923545
0.0936158
0.0948436
0.0960344
0.0971833
0.0982845
0.0993307
0.100313
0.101221
0.102042
0.102763
0.103367
0.103838
0.104158
0.104307
0.104264
0.10401
0.103525
0.102789
0.101783
0.100492
0.0988988
0.096992
0.0947611
0.0921982
0.0892993
0.0860606
0.0824851
0.0785711
0.0743297
0.0697547
0.0648713
0.0596525
0.0541562
0.0482932
0.0422123
0.0356487
0.0290272
0.0215835
0.0146473
0.0060477
0.256021
0.253517
0.249287
0.246138
0.243682
0.241977
0.240934
0.240448
0.240385
0.240608
0.240976
0.241355
0.241618
0.241646
0.241322
0.240532
0.239156
0.237068
0.234129
0.23018
0.225052
0.218528
0.210394
0.200329
0.188063
0.173057
0.154998
0.1329
0.107012
0.0764974
0.0427818
0.0124467
-0.0124172
-0.0285156
-0.0299704
-0.0216421
-0.0113407
-0.000911802
0.00882521
0.0177276
0.0258273
0.0331881
0.0398991
0.0459812
0.0515927
0.0564331
0.0609633
0.0653246
0.0688658
0.0718953
0.0749947
0.0778076
0.0802073
0.0825023
0.0843541
0.0857298
0.0865556
0.0868096
0.08649
0.0856223
0.0842517
0.08244
0.0802607
0.0777942
0.0751241
0.0723337
0.0695029
0.0667059
0.06401
0.0614737
0.0591469
0.0570696
0.055274
0.0537816
0.0526078
0.0517559
0.0512292
0.0510131
0.0511076
0.0514731
0.0521278
0.0529759
0.0541201
0.0552824
0.056893
0.0579888
0.0597231
0.0615467
0.0623846
0.063752
0.0649347
0.066187
0.0674526
0.0687616
0.0701066
0.0714875
0.0728978
0.0743314
0.0757813
0.0772405
0.0787025
0.0801616
0.0816124
0.0830507
0.0844727
0.0858756
0.0872569
0.0886146
0.0899469
0.0912522
0.0925287
0.093774
0.0949855
0.0961595
0.0972914
0.0983752
0.0994037
0.100368
0.101257
0.102059
0.10276
0.103344
0.103794
0.104091
0.104216
0.104149
0.10387
0.103358
0.102594
0.101561
0.10024
0.0986184
0.0966824
0.0944226
0.0918312
0.0889048
0.0856398
0.0820397
0.0781027
0.0738411
0.0692479
0.0643502
0.0591189
0.0536164
0.0477483
0.0416742
0.03512
0.028532
0.0211458
0.0142948
0.00590387
0.255524
0.253095
0.248956
0.24588
0.243534
0.24194
0.241006
0.240618
0.240639
0.240928
0.241344
0.241752
0.242029
0.242056
0.24172
0.240907
0.239503
0.23738
0.234404
0.230417
0.225252
0.218696
0.210539
0.200472
0.188238
0.173339
0.155514
0.133944
0.108971
0.0802271
0.0486549
0.0195497
-0.00519506
-0.0228403
-0.0270875
-0.0208703
-0.0115623
-0.0016015
0.00792855
0.0167433
0.0248165
0.0321818
0.0389215
0.0450366
0.0507154
0.0555807
0.0601104
0.0645753
0.0682135
0.0712665
0.0744008
0.0772104
0.0795445
0.0817794
0.0835581
0.0848537
0.0855987
0.0857743
0.0853821
0.0844499
0.0830248
0.0811698
0.0789589
0.0764728
0.0737948
0.0710076
0.0681903
0.0654162
0.0627515
0.0602536
0.0579714
0.0559441
0.0542032
0.0527695
0.0516579
0.0508706
0.0504112
0.0502632
0.0504275
0.0508614
0.0515851
0.0524971
0.0537028
0.0549194
0.0565668
0.0577192
0.0594552
0.0613033
0.062201
0.0636044
0.0648497
0.0661538
0.0674713
0.0688266
0.0702136
0.0716311
0.073073
0.074533
0.0760041
0.0774797
0.0789534
0.0804197
0.0818739
0.0833121
0.0847308
0.0861278
0.0875008
0.0888484
0.090169
0.0914615
0.092724
0.0939548
0.0951511
0.0963094
0.0974253
0.0984927
0.0995043
0.100451
0.101323
0.102106
0.102788
0.103351
0.10378
0.104054
0.104156
0.104064
0.103758
0.103218
0.102426
0.101362
0.100011
0.0983577
0.09639
0.0940986
0.0914761
0.0885195
0.0852256
0.0815986
0.0776367
0.0733534
0.068741
0.0638289
0.0585861
0.0530796
0.0472107
0.0411487
0.0346132
0.0280672
0.0207502
0.0139843
0.0057761
0.254803
0.252461
0.248436
0.245448
0.243232
0.241777
0.240983
0.240725
0.240863
0.24125
0.241744
0.24221
0.242524
0.242571
0.242239
0.241418
0.239995
0.237847
0.234842
0.230824
0.225628
0.219047
0.210878
0.200822
0.188642
0.173881
0.15633
0.135331
0.11128
0.0841632
0.0545741
0.0267113
0.00226496
-0.0165995
-0.0234933
-0.0195648
-0.0114705
-0.0021157
0.0071278
0.0158094
0.0238292
0.0311822
0.0379404
0.0440812
0.0498238
0.0547223
0.0592523
0.0638128
0.067543
0.0706059
0.0737484
0.0765294
0.0787708
0.0809117
0.0825845
0.0837661
0.0843976
0.0844642
0.0839719
0.0829513
0.0814514
0.0795367
0.0772816
0.0747667
0.0720748
0.0692876
0.0664829
0.0637326
0.0611016
0.0586457
0.0564129
0.0544408
0.0527606
0.051392
0.0503496
0.0496345
0.0492503
0.049179
0.0494223
0.0499348
0.050738
0.0517265
0.0530058
0.0542934
0.0559928
0.0572281
0.0589904
0.0608799
0.0618587
0.0633111
0.0646334
0.0660038
0.0673872
0.0688025
0.0702445
0.0717111
0.0731961
0.0746932
0.0761955
0.0776965
0.0791901
0.0806712
0.0821353
0.083579
0.0849995
0.0863948
0.0877632
0.0891038
0.0904154
0.0916971
0.0929477
0.0941654
0.0953478
0.0964915
0.0975922
0.0986439
0.0996392
0.100569
0.101423
0.102188
0.10285
0.103393
0.103799
0.10405
0.104126
0.104007
0.103673
0.103104
0.10228
0.101183
0.0997983
0.0981104
0.0961077
0.0937814
0.0911245
0.0881345
0.0848088
0.0811522
0.0771633
0.0728566
0.0682243
0.0632978
0.0580448
0.0525366
0.0466712
0.0406266
0.0341184
0.0276213
0.0203822
0.0137005
0.00565693
0.253835
0.251593
0.247703
0.244822
0.24276
0.241474
0.240854
0.240764
0.241057
0.241578
0.242183
0.242737
0.243116
0.243205
0.242896
0.242083
0.240655
0.238492
0.235464
0.23142
0.226199
0.219599
0.211423
0.201388
0.189277
0.174676
0.157427
0.137017
0.113871
0.0882266
0.0604472
0.0338145
0.00983003
-0.00989898
-0.0191989
-0.0176584
-0.0109952
-0.00240976
0.00644468
0.0149317
0.0228605
0.0301772
0.0369393
0.0430955
0.0488943
0.0538337
0.0583671
0.0630127
0.0668288
0.0698872
0.0730057
0.0757263
0.0778421
0.0798487
0.0813777
0.0824074
0.0828897
0.0828149
0.0821939
0.0810605
0.0794663
0.0774766
0.0751664
0.0726158
0.0699064
0.0671184
0.0643281
0.0616054
0.0590132
0.0566058
0.0544293
0.0525201
0.0509085
0.0496132
0.0486484
0.0480139
0.0477137
0.0477283
0.0480602
0.0486617
0.0495554
0.0506331
0.0519989
0.0533748
0.0551428
0.0564867
0.0582999
0.060247
0.0613285
0.0628461
0.0642613
0.0657148
0.0671806
0.068672
0.0701844
0.0717148
0.0732568
0.0748041
0.0763496
0.0778871
0.0794107
0.0809156
0.0823977
0.0838541
0.0852826
0.0866815
0.08805
0.0893874
0.0906932
0.0919669
0.0932077
0.0944141
0.095584
0.0967143
0.0978006
0.098837
0.0998163
0.100729
0.101565
0.102311
0.102952
0.103473
0.103856
0.104081
0.10413
0.103982
0.103616
0.103014
0.102155
0.101022
0.0995988
0.0978722
0.0958305
0.0934653
0.09077
0.0877431
0.0843822
0.0806932
0.0766749
0.0723432
0.0676902
0.0627494
0.0574876
0.0519799
0.0461225
0.0401002
0.0336271
0.0271845
0.0200302
0.0134316
0.00554097
0.252601
0.250468
0.246733
0.243983
0.2421
0.241017
0.240609
0.240728
0.241216
0.241912
0.242667
0.243343
0.243817
0.243974
0.243711
0.242922
0.241502
0.239334
0.236291
0.232225
0.226983
0.220365
0.212187
0.202181
0.190147
0.175722
0.158789
0.138965
0.116691
0.0923665
0.0662194
0.040776
0.0173784
-0.00286754
-0.014256
-0.0151088
-0.010066
-0.00242743
0.00591294
0.0141248
0.0219112
0.0291576
0.0359011
0.0420577
0.0478997
0.052885
0.0574251
0.0621424
0.0660345
0.0690733
0.0721315
0.0747534
0.0767064
0.0785338
0.0798778
0.0807159
0.0810124
0.0807635
0.0799859
0.0787169
0.0770105
0.074933
0.0725593
0.0699685
0.0672408
0.0644543
0.0616828
0.0589939
0.0564483
0.0540979
0.051987
0.0501502
0.0486169
0.0474047
0.046527
0.0459828
0.045776
0.0458863
0.0463166
0.0470177
0.0480128
0.0491924
0.0506578
0.0521394
0.0539931
0.0554695
0.057358
0.0593788
0.0605846
0.0621858
0.063711
0.0652665
0.0668329
0.0684186
0.0700191
0.0716302
0.0732455
0.074858
0.076461
0.0780481
0.0796137
0.0811531
0.082663
0.0841407
0.0855846
0.0869938
0.0883678
0.0897068
0.0910108
0.0922798
0.0935133
0.0947105
0.0958695
0.0969874
0.0980599
0.0990815
0.100045
0.10094
0.101757
0.102482
0.103101
0.103598
0.103955
0.104152
0.10417
0.103989
0.103588
0.102948
0.102049
0.100875
0.0994098
0.0976399
0.0955544
0.0931456
0.0904077
0.0873398
0.0839401
0.0802155
0.0761654
0.0718069
0.0671323
0.0621773
0.0569081
0.0514033
0.0455582
0.0395626
0.0331318
0.0267481
0.0196844
0.0131687
0.00542424
0.251086
0.249067
0.245507
0.242912
0.241238
0.240394
0.240239
0.240611
0.241339
0.242255
0.243201
0.244038
0.244639
0.244895
0.2447
0.243955
0.242556
0.240393
0.237341
0.233259
0.227996
0.221363
0.213184
0.203208
0.191258
0.177015
0.160401
0.141148
0.119698
0.0965509
0.0718625
0.0475442
0.0248108
0.00435874
-0.00875261
-0.0119079
-0.00862317
-0.00210713
0.00557727
0.0134141
0.0209904
0.0281194
0.0348119
0.0409464
0.0468111
0.0518418
0.0563906
0.0611615
0.065115
0.0681178
0.0710759
0.073556
0.0753064
0.0769076
0.0780241
0.0786314
0.0787067
0.0782534
0.0772939
0.0758694
0.0740361
0.0718612
0.0694188
0.0667866
0.0640427
0.0612625
0.0585169
0.0558705
0.0533811
0.0510981
0.0490635
0.0473101
0.045866
0.0447474
0.0439672
0.0435233
0.0434199
0.0436357
0.0441743
0.0449856
0.0460927
0.0473869
0.0489646
0.0505687
0.0525248
0.0541555
0.0561433
0.0582538
0.0596051
0.0613099
0.0629631
0.0646404
0.0663271
0.0680271
0.0697352
0.071446
0.0731526
0.0748478
0.0765245
0.0781763
0.0797977
0.0813845
0.0829335
0.0844426
0.085911
0.0873381
0.0887245
0.0900707
0.0913776
0.0926456
0.0938751
0.0950654
0.0962151
0.0973217
0.098381
0.0993875
0.100334
0.101211
0.102007
0.10271
0.103305
0.103774
0.104101
0.104266
0.10425
0.104031
0.10359
0.102907
0.101964
0.100743
0.09923
0.0974113
0.0952767
0.0928193
0.0900339
0.0869204
0.083478
0.0797145
0.0756299
0.0712428
0.0665458
0.0615766
0.0563014
0.0508017
0.044973
0.0390083
0.0326261
0.0263053
0.0193372
0.0129049
0.00530394
0.249274
0.247374
0.244007
0.241594
0.240159
0.239592
0.239734
0.240407
0.241423
0.242605
0.243788
0.244827
0.245594
0.245978
0.245878
0.245197
0.243836
0.241688
0.238634
0.234538
0.229255
0.222607
0.214425
0.204481
0.192613
0.178553
0.162253
0.143542
0.122863
0.100759
0.0773614
0.0540895
0.0320544
0.0116501
-0.00280284
-0.00808513
-0.00662904
-0.00139058
0.0054892
0.0128355
0.020117
0.0270672
0.0336633
0.0397437
0.0456008
0.0506679
0.0552232
0.0600238
0.0640178
0.0669663
0.0697829
0.0720747
0.0735824
0.0749109
0.0757584
0.0760986
0.0759212
0.0752372
0.0740751
0.07248
0.0705098
0.0682319
0.0657196
0.0630484
0.0602935
0.0575269
0.0548163
0.0522227
0.0498007
0.0475966
0.0456498
0.0439913
0.0426478
0.0416337
0.0409614
0.040628
0.0406376
0.0409686
0.0416249
0.0425564
0.0437856
0.0452064
0.0469086
0.0486506
0.0507252
0.0525291
0.0546392
0.0568558
0.0583725
0.0602019
0.0620016
0.0638214
0.0656492
0.0674845
0.069321
0.0711522
0.0729701
0.074767
0.0765355
0.0782689
0.079962
0.0816105
0.0832118
0.0847643
0.0862674
0.0877217
0.0891282
0.0904884
0.0918036
0.0930753
0.0943041
0.0954902
0.0966325
0.0977288
0.0987753
0.0997665
0.100695
0.101552
0.102326
0.103004
0.10357
0.104009
0.104302
0.104431
0.104374
0.104112
0.103625
0.102894
0.1019
0.100627
0.0990591
0.0971854
0.0949957
0.0924839
0.0896457
0.086482
0.0829926
0.0791866
0.0750649
0.0706472
0.065927
0.0609436
0.0556639
0.0501714
0.0443631
0.0384328
0.0321051
0.0258507
0.0189828
0.0126354
0.0051782
0.247155
0.245376
0.242218
0.240016
0.238853
0.238603
0.239088
0.24011
0.241466
0.242965
0.244433
0.245718
0.24669
0.247237
0.24726
0.246665
0.245358
0.243236
0.240187
0.23608
0.230777
0.22411
0.215923
0.206005
0.194217
0.180332
0.164333
0.14613
0.12616
0.104977
0.0827121
0.0604003
0.0390614
0.0188932
0.00346522
-0.00370474
-0.00407479
-0.000232016
0.0057007
0.0124317
0.01932
0.0260152
0.0324557
0.0384382
0.0442461
0.0493289
0.0538817
0.0586808
0.0626861
0.0655599
0.0681941
0.0702505
0.0714767
0.0724898
0.0730308
0.0730726
0.072617
0.0716824
0.0703034
0.0685284
0.0664168
0.0640356
0.0614564
0.058752
0.0559941
0.053251
0.0505861
0.0480568
0.0457139
0.0436004
0.041753
0.0402007
0.0389685
0.0380693
0.0375145
0.0373008
0.0374323
0.0378872
0.0386697
0.0397305
0.041091
0.042649
0.0444866
0.0463806
0.0485883
0.0505816
0.0528352
0.0551739
0.0568749
0.0588502
0.060815
0.0627982
0.064788
0.0667803
0.0687672
0.0707403
0.0726908