# vtk DataFile Version 2.0
insac_ib
ASCII
DATASET STRUCTURED_GRID
DIMENSIONS 151 51 1
POINTS 7701 float
0 0 0
0.0703713 0 0
0.140743 0 0
0.211114 0 0
0.281485 0 0
0.351857 0 0
0.422228 0 0
0.492599 0 0
0.562971 0 0
0.633342 0 0
0.703713 0 0
0.774085 0 0
0.844456 0 0
0.914827 0 0
0.985199 0 0
1.05557 0 0
1.12594 0 0
1.19631 0 0
1.26668 0 0
1.33706 0 0
1.40743 0 0
1.4778 0 0
1.54817 0 0
1.61854 0 0
1.68891 0 0
1.75928 0 0
1.82965 0 0
1.90003 0 0
1.9704 0 0
2.04077 -0.00166634 0
2.11114 -0.0125128 0
2.18151 -0.0341173 0
2.25188 -0.0680912 0
2.32225 -0.117717 0
2.39263 -0.176764 0
2.463 -0.235812 0
2.53337 -0.294859 0
2.60374 -0.353906 0
2.67411 -0.412954 0
2.74448 -0.472001 0
2.81485 -0.531049 0
2.88522 -0.590096 0
2.9556 -0.649144 0
3.02597 -0.708191 0
3.09634 -0.767239 0
3.16671 -0.826286 0
3.23708 -0.885317 0
3.30745 -0.934009 0
3.37782 -0.967283 0
3.4482 -0.988302 0
3.51857 -0.998618 0
3.58894 -1 0
3.65931 -1 0
3.72968 -1 0
3.80005 -1 0
3.87042 -1 0
3.94079 -1 0
4.01117 -1 0
4.08154 -1 0
4.15191 -1 0
4.22228 -1 0
4.29265 -1 0
4.36302 -1 0
4.43339 -1 0
4.50377 -1 0
4.57414 -1 0
4.64451 -1 0
4.71488 -1 0
4.78525 -1 0
4.85562 -1 0
4.92599 -1 0
4.99636 -1 0
5.06674 -1 0
5.13711 -1 0
5.20748 -1 0
5.27785 -1 0
5.34822 -1 0
5.41859 -1 0
5.48896 -1 0
5.55934 -1 0
5.62971 -1 0
5.70008 -1 0
5.77045 -1 0
5.84082 -1 0
5.91119 -1 0
5.98156 -1 0
6.05193 -1 0
6.12231 -0.990625 0
6.19268 -0.98125 0
6.26305 -0.971875 0
6.33342 -0.9625 0
6.40379 -0.953125 0
6.47416 -0.94375 0
6.54453 -0.934375 0
6.61491 -0.925 0
6.68528 -0.915625 0
6.75565 -0.90625 0
6.82602 -0.896875 0
6.89639 -0.8875 0
6.96676 -0.878125 0
7.03713 -0.86875 0
7.1075 -0.859375 0
7.17788 -0.85 0
7.24825 -0.840625 0
7.31862 -0.83125 0
7.38899 -0.821875 0
7.45936 -0.8125 0
7.52973 -0.803125 0
7.6001 -0.79375 0
7.67048 -0.784375 0
7.74085 -0.775 0
7.81122 -0.765625 0
7.88159 -0.75625 0
7.95196 -0.746875 0
8.02233 -0.7375 0
8.0927 -0.728125 0
8.16307 -0.71875 0
8.23345 -0.709375 0
8.30382 -0.7 0
8.37419 -0.690625 0
8.44456 -0.68125 0
8.51493 -0.671875 0
8.5853 -0.6625 0
8.65567 -0.653125 0
8.72605 -0.64375 0
8.79642 -0.634375 0
8.86679 -0.625 0
8.93716 -0.615625 0
9.00753 -0.60625 0
9.0779 -0.596875 0
9.14827 -0.5875 0
9.21864 -0.578125 0
9.28902 -0.568749 0
9.35939 -0.559374 0
9.42976 -0.549999 0
9.50013 -0.540624 0
9.5705 -0.531249 0
9.64087 -0.521874 0
9.71124 -0.512499 0
9.78162 -0.503124 0
9.85199 -0.493749 0
9.92236 -0.484374 0
9.99273 -0.474999 0
10.0631 -0.465624 0
10.1335 -0.456249 0
10.2038 -0.446874 0
10.2742 -0.437499 0
10.3446 -0.428124 0
10.415 -0.418749 0
10.4853 -0.409374 0
10.5557 -0.399999 0
0 0.02 0
0.0703713 0.02 0
0.140743 0.02 0
0.211114 0.02 0
0.281485 0.02 0
0.351857 0.02 0
0.422228 0.02 0
0.492599 0.02 0
0.562971 0.02 0
0.633342 0.02 0
0.703713 0.02 0
0.774085 0.02 0
0.844456 0.02 0
0.914827 0.02 0
0.985199 0.02 0
1.05557 0.02 0
1.12594 0.02 0
1.19631 0.02 0
1.26668 0.02 0
1.33706 0.02 0
1.40743 0.02 0
1.4778 0.02 0
1.54817 0.02 0
1.61854 0.02 0
1.68891 0.02 0
1.75928 0.02 0
1.82965 0.02 0
1.90003 0.02 0
1.9704 0.02 0
2.04077 0.018367 0
2.11114 0.00773744 0
2.18151 -0.013435 0
2.25188 -0.0467294 0
2.32225 -0.0953622 0
2.39263 -0.153229 0
2.463 -0.211095 0
2.53337 -0.268962 0
2.60374 -0.326828 0
2.67411 -0.384695 0
2.74448 -0.442561 0
2.81485 -0.500428 0
2.88522 -0.558294 0
2.9556 -0.616161 0
3.02597 -0.674028 0
3.09634 -0.731894 0
3.16671 -0.789761 0
3.23708 -0.847611 0
3.30745 -0.895328 0
3.37782 -0.927937 0
3.4482 -0.948536 0
3.51857 -0.958645 0
3.58894 -0.96 0
3.65931 -0.96 0
3.72968 -0.96 0
3.80005 -0.96 0
3.87042 -0.96 0
3.94079 -0.96 0
4.01117 -0.96 0
4.08154 -0.96 0
4.15191 -0.96 0
4.22228 -0.96 0
4.29265 -0.96 0
4.36302 -0.96 0
4.43339 -0.96 0
4.50377 -0.96 0
4.57414 -0.96 0
4.64451 -0.96 0
4.71488 -0.96 0
4.78525 -0.96 0
4.85562 -0.96 0
4.92599 -0.96 0
4.99636 -0.96 0
5.06674 -0.96 0
5.13711 -0.96 0
5.20748 -0.96 0
5.27785 -0.96 0
5.34822 -0.96 0
5.41859 -0.96 0
5.48896 -0.96 0
5.55934 -0.96 0
5.62971 -0.96 0
5.70008 -0.96 0
5.77045 -0.96 0
5.84082 -0.96 0
5.91119 -0.96 0
5.98156 -0.96 0
6.05193 -0.96 0
6.12231 -0.950812 0
6.19268 -0.941625 0
6.26305 -0.932437 0
6.33342 -0.92325 0
6.40379 -0.914062 0
6.47416 -0.904875 0
6.54453 -0.895687 0
6.61491 -0.8865 0
6.68528 -0.877312 0
6.75565 -0.868125 0
6.82602 -0.858937 0
6.89639 -0.84975 0
6.96676 -0.840562 0
7.03713 -0.831375 0
7.1075 -0.822187 0
7.17788 -0.813 0
7.24825 -0.803812 0
7.31862 -0.794625 0
7.38899 -0.785437 0
7.45936 -0.77625 0
7.52973 -0.767062 0
7.6001 -0.757875 0
7.67048 -0.748687 0
7.74085 -0.7395 0
7.81122 -0.730312 0
7.88159 -0.721125 0
7.95196 -0.711937 0
8.02233 -0.70275 0
8.0927 -0.693562 0
8.16307 -0.684375 0
8.23345 -0.675187 0
8.30382 -0.666 0
8.37419 -0.656812 0
8.44456 -0.647625 0
8.51493 -0.638437 0
8.5853 -0.62925 0
8.65567 -0.620062 0
8.72605 -0.610875 0
8.79642 -0.601687 0
8.86679 -0.5925 0
8.93716 -0.583312 0
9.00753 -0.574125 0
9.0779 -0.564937 0
9.14827 -0.55575 0
9.21864 -0.546562 0
9.28902 -0.537374 0
9.35939 -0.528187 0
9.42976 -0.518999 0
9.50013 -0.509812 0
9.5705 -0.500624 0
9.64087 -0.491437 0
9.71124 -0.482249 0
9.78162 -0.473062 0
9.85199 -0.463874 0
9.92236 -0.454687 0
9.99273 -0.445499 0
10.0631 -0.436312 0
10.1335 -0.427124 0
10.2038 -0.417937 0
10.2742 -0.408749 0
10.3446 -0.399562 0
10.415 -0.390374 0
10.4853 -0.381187 0
10.5557 -0.371999 0
0 0.04 0
0.0703713 0.04 0
0.140743 0.04 0
0.211114 0.04 0
0.281485 0.04 0
0.351857 0.04 0
0.422228 0.04 0
0.492599 0.04 0
0.562971 0.04 0
0.633342 0.04 0
0.703713 0.04 0
0.774085 0.04 0
0.844456 0.04 0
0.914827 0.04 0
0.985199 0.04 0
1.05557 0.04 0
1.12594 0.04 0
1.19631 0.04 0
1.26668 0.04 0
1.33706 0.04 0
1.40743 0.04 0
1.4778 0.04 0
1.54817 0.04 0
1.61854 0.04 0
1.68891 0.04 0
1.75928 0.04 0
1.82965 0.04 0
1.90003 0.04 0
1.9704 0.04 0
2.04077 0.0384003 0
2.11114 0.0279877 0
2.18151 0.00724739 0
2.25188 -0.0253676 0
2.32225 -0.0730079 0
2.39263 -0.129693 0
2.463 -0.186379 0
2.53337 -0.243065 0
2.60374 -0.29975 0
2.67411 -0.356436 0
2.74448 -0.413121 0
2.81485 -0.469807 0
2.88522 -0.526493 0
2.9556 -0.583178 0
3.02597 -0.639864 0
3.09634 -0.696549 0
3.16671 -0.753235 0
3.23708 -0.809904 0
3.30745 -0.856648 0
3.37782 -0.888592 0
3.4482 -0.90877 0
3.51857 -0.918673 0
3.58894 -0.92 0
3.65931 -0.92 0
3.72968 -0.92 0
3.80005 -0.92 0
3.87042 -0.92 0
3.94079 -0.92 0
4.01117 -0.92 0
4.08154 -0.92 0
4.15191 -0.92 0
4.22228 -0.92 0
4.29265 -0.92 0
4.36302 -0.92 0
4.43339 -0.92 0
4.50377 -0.92 0
4.57414 -0.92 0
4.64451 -0.92 0
4.71488 -0.92 0
4.78525 -0.92 0
4.85562 -0.92 0
4.92599 -0.92 0
4.99636 -0.92 0
5.06674 -0.92 0
5.13711 -0.92 0
5.20748 -0.92 0
5.27785 -0.92 0
5.34822 -0.92 0
5.41859 -0.92 0
5.48896 -0.92 0
5.55934 -0.92 0
5.62971 -0.92 0
5.70008 -0.92 0
5.77045 -0.92 0
5.84082 -0.92 0
5.91119 -0.92 0
5.98156 -0.92 0
6.05193 -0.92 0
6.12231 -0.911 0
6.19268 -0.902 0
6.26305 -0.893 0
6.33342 -0.884 0
6.40379 -0.875 0
6.47416 -0.866 0
6.54453 -0.857 0
6.61491 -0.848 0
6.68528 -0.839 0
6.75565 -0.83 0
6.82602 -0.821 0
6.89639 -0.812 0
6.96676 -0.803 0
7.03713 -0.794 0
7.1075 -0.785 0
7.17788 -0.776 0
7.24825 -0.767 0
7.31862 -0.758 0
7.38899 -0.749 0
7.45936 -0.74 0
7.52973 -0.731 0
7.6001 -0.722 0
7.67048 -0.713 0
7.74085 -0.704 0
7.81122 -0.695 0
7.88159 -0.686 0
7.95196 -0.677 0
8.02233 -0.668 0
8.0927 -0.659 0
8.16307 -0.65 0
8.23345 -0.641 0
8.30382 -0.632 0
8.37419 -0.623 0
8.44456 -0.614 0
8.51493 -0.605 0
8.5853 -0.596 0
8.65567 -0.587 0
8.72605 -0.578 0
8.79642 -0.569 0
8.86679 -0.56 0
8.93716 -0.551 0
9.00753 -0.542 0
9.0779 -0.533 0
9.14827 -0.524 0
9.21864 -0.515 0
9.28902 -0.506 0
9.35939 -0.496999 0
9.42976 -0.487999 0
9.50013 -0.478999 0
9.5705 -0.469999 0
9.64087 -0.460999 0
9.71124 -0.451999 0
9.78162 -0.442999 0
9.85199 -0.433999 0
9.92236 -0.424999 0
9.99273 -0.415999 0
10.0631 -0.406999 0
10.1335 -0.397999 0
10.2038 -0.388999 0
10.2742 -0.379999 0
10.3446 -0.370999 0
10.415 -0.361999 0
10.4853 -0.352999 0
10.5557 -0.343999 0
0 0.06 0
0.0703713 0.06 0
0.140743 0.06 0
0.211114 0.06 0
0.281485 0.06 0
0.351857 0.06 0
0.422228 0.06 0
0.492599 0.06 0
0.562971 0.06 0
0.633342 0.06 0
0.703713 0.06 0
0.774085 0.06 0
0.844456 0.06 0
0.914827 0.06 0
0.985199 0.06 0
1.05557 0.06 0
1.12594 0.06 0
1.19631 0.06 0
1.26668 0.06 0
1.33706 0.06 0
1.40743 0.06 0
1.4778 0.06 0
1.54817 0.06 0
1.61854 0.06 0
1.68891 0.06 0
1.75928 0.06 0
1.82965 0.06 0
1.90003 0.06 0
1.9704 0.06 0
2.04077 0.0584336 0
2.11114 0.048238 0
2.18151 0.0279297 0
2.25188 -0.00400573 0
2.32225 -0.0506536 0
2.39263 -0.106158 0
2.463 -0.161663 0
2.53337 -0.217167 0
2.60374 -0.272672 0
2.67411 -0.328177 0
2.74448 -0.383681 0
2.81485 -0.439186 0
2.88522 -0.494691 0
2.9556 -0.550195 0
3.02597 -0.6057 0
3.09634 -0.661204 0
3.16671 -0.716709 0
3.23708 -0.772198 0
3.30745 -0.817968 0
3.37782 -0.849246 0
3.4482 -0.869004 0
3.51857 -0.878701 0
3.58894 -0.88 0
3.65931 -0.88 0
3.72968 -0.88 0
3.80005 -0.88 0
3.87042 -0.88 0
3.94079 -0.88 0
4.01117 -0.88 0
4.08154 -0.88 0
4.15191 -0.88 0
4.22228 -0.88 0
4.29265 -0.88 0
4.36302 -0.88 0
4.43339 -0.88 0
4.50377 -0.88 0
4.57414 -0.88 0
4.64451 -0.88 0
4.71488 -0.88 0
4.78525 -0.88 0
4.85562 -0.88 0
4.92599 -0.88 0
4.99636 -0.88 0
5.06674 -0.88 0
5.13711 -0.88 0
5.20748 -0.88 0
5.27785 -0.88 0
5.34822 -0.88 0
5.41859 -0.88 0
5.48896 -0.88 0
5.55934 -0.88 0
5.62971 -0.88 0
5.70008 -0.88 0
5.77045 -0.88 0
5.84082 -0.88 0
5.91119 -0.88 0
5.98156 -0.88 0
6.05193 -0.88 0
6.12231 -0.871187 0
6.19268 -0.862375 0
6.26305 -0.853562 0
6.33342 -0.84475 0
6.40379 -0.835937 0
6.47416 -0.827125 0
6.54453 -0.818312 0
6.61491 -0.8095 0
6.68528 -0.800687 0
6.75565 -0.791875 0
6.82602 -0.783062 0
6.89639 -0.77425 0
6.96676 -0.765437 0
7.03713 -0.756625 0
7.1075 -0.747812 0
7.17788 -0.739 0
7.24825 -0.730187 0
7.31862 -0.721375 0
7.38899 -0.712562 0
7.45936 -0.70375 0
7.52973 -0.694937 0
7.6001 -0.686125 0
7.67048 -0.677312 0
7.74085 -0.6685 0
7.81122 -0.659687 0
7.88159 -0.650875 0
7.95196 -0.642062 0
8.02233 -0.63325 0
8.0927 -0.624437 0
8.16307 -0.615625 0
8.23345 -0.606812 0
8.30382 -0.598 0
8.37419 -0.589187 0
[...]
POINT_DATA 7701
SCALARS pressure float 1
LOOKUP_TABLE default
0.047643
0.0463331
0.0440924
0.0420371
0.0398273
0.0376169
0.0353602
0.0330775
0.0307633
0.0284181
0.0260408
0.0236271
0.0211757
0.0186793
0.0161361
0.0135348
0.0108733
0.00813482
0.00531715
0.0023944
-0.000634614
-0.00381144
-0.00713429
-0.010675
-0.0144234
-0.0185211
-0.0229394
-0.0280345
-0.0337761
-0.0419281
-0.0481019
-0.0462822
-0.0392667
-0.0294175
-0.0203806
-0.0150966
-0.011726
-0.00914672
-0.00733455
-0.00590836
-0.0048411
-0.00399488
-0.00330888
-0.00266678
-0.00200446
-0.00117829
-0.000401111
1.11781e-05
0.000252074
0.000460629
0.000599506
0.00106868
0.00221917
0.00403271
0.00671535
0.0103066
0.0146213
0.0192046
0.0233973
0.026586
0.0284218
0.0288602
0.0281584
0.026645
0.0246865
0.0225351
0.0203592
0.0182699
0.0162833
0.01448
0.0128539
0.0114133
0.0101473
0.00903295
0.00807743
0.00726134
0.00659946
0.0060982
0.00573131
0.00548729
0.00533666
0.00524613
0.00522001
0.00518922
0.00524369
0.00519584
0.0053664
0.00550528
0.00536946
0.00534143
0.00525064
0.0052005
0.00514252
0.00510514
0.00507291
0.00505336
0.0050403
0.00503491
0.00503403
0.00503722
0.00504288
0.00505062
0.00505988
0.00507079
0.00508354
0.00509869
0.00511686
0.00513883
0.00516534
0.00519716
0.00523496
0.00527929
0.00533059
0.00538915
0.00545505
0.00552824
0.00560845
0.0056952
0.00578782
0.00588543
0.00598694
0.00609105
0.00619625
0.00630086
0.006403
0.00650067
0.00659168
0.00667383
0.0067447
0.00680203
0.00684324
0.00686626
0.00686835
0.00684795
0.00680196
0.00672991
0.00662779
0.00649723
0.00633189
0.00613771
0.00590277
0.00564206
0.00533082
0.00500362
0.00460668
0.00421789
0.00371768
0.00328196
0.00263406
0.0021763
0.00143652
0.0476615
0.0463348
0.0440824
0.0420307
0.0398203
0.0376104
0.0353534
0.0330704
0.0307557
0.0284098
0.0260317
0.023617
0.0211644
0.0186666
0.0161217
0.0135184
0.0108547
0.00811332
0.00529242
0.00236566
-0.000667969
-0.00385073
-0.00718048
-0.0107307
-0.0144905
-0.0186064
-0.023047
-0.0281864
-0.0338701
-0.0415308
-0.047234
-0.0455596
-0.0391341
-0.0298673
-0.0209755
-0.0155631
-0.0120966
-0.00944894
-0.00757997
-0.00611089
-0.00500512
-0.0041273
-0.00341942
-0.00276963
-0.00212487
-0.00133181
-0.000542793
-6.48101e-05
0.000251351
0.000541972
0.000785307
0.00132478
0.00247127
0.0042293
0.00680717
0.0102474
0.0143863
0.0188032
0.0228727
0.026001
0.027841
0.028335
0.0277211
0.0263073
0.0244441
0.0223744
0.0202635
0.0182256
0.0162809
0.0145113
0.0129105
0.011488
0.0102354
0.00913192
0.00818686
0.00738107
0.00672782
0.00623099
0.00586314
0.00561341
0.00545365
0.00535187
0.00531505
0.00527355
0.00532109
0.00526605
0.00540103
0.00550702
0.00537571
0.0053559
0.00526827
0.00522202
0.00516545
0.00512924
0.005097
0.00507697
0.0050628
0.00505597
0.00505341
0.00505486
0.0050588
0.00506494
0.00507277
0.00508245
0.00509417
0.00510845
0.00512591
0.00514726
0.00517323
0.00520453
0.00524178
0.00528553
0.00533618
0.00539398
0.00545904
0.00553124
0.00561033
0.00569583
0.00578706
0.00588314
0.00598298
0.00608528
0.00618854
0.00629111
0.00639109
0.00648652
0.00657522
0.00665499
0.00672344
0.00677834
0.0068171
0.00683771
0.0068374
0.00681465
0.00676638
0.00669212
0.00658786
0.00645526
0.00628794
0.00609191
0.00585512
0.00559271
0.00527963
0.00495082
0.00455181
0.00416124
0.00365793
0.0032191
0.00256546
0.00210134
0.00111133
0.0476904
0.0463425
0.0440722
0.0420227
0.0398116
0.0376019
0.0353444
0.0330609
0.0307454
0.0283987
0.0260194
0.0236034
0.0211492
0.0186494
0.0161023
0.0134964
0.0108296
0.00808448
0.00525937
0.00232734
-0.000712226
-0.00390267
-0.00724104
-0.0108032
-0.0145763
-0.0187128
-0.0231737
-0.0283449
-0.0339103
-0.0408468
-0.0458863
-0.0444139
-0.0388195
-0.0304595
-0.0218471
-0.0162669
-0.0126688
-0.00991895
-0.00796276
-0.00642752
-0.00526246
-0.00433569
-0.00359286
-0.00292752
-0.0023019
-0.00156252
-0.000775725
-0.000219197
0.000194783
0.000582942
0.000948793
0.00155021
0.00264972
0.00429706
0.00670941
0.00995616
0.0139082
0.0181815
0.0221666
0.0252691
0.0271327
0.0276872
0.0271615
0.0258495
0.0240917
0.0221173
0.0200868
0.0181138
0.0162195
0.0144955
0.0129308
0.0115363
0.0103054
0.0092188
0.00829058
0.00750092
0.00686435
0.00638154
0.00602004
0.00577047
0.00560429
0.00549204
0.00544327
0.00538914
0.00542584
0.00536129
0.00545059
0.00551522
0.00538991
0.00537776
0.00529375
0.00525191
0.00519715
0.00516248
0.00513033
0.00510979
0.00509424
0.00508558
0.00508078
0.00507988
0.00508142
0.00508531
0.00509108
0.00509894
0.00510909
0.00512204
0.00513834
0.0051587
0.00518376
0.00521419
0.00525058
0.00529342
0.00534307
0.00539976
0.00546356
0.00553437
0.00561189
0.00569563
0.00578493
0.00587889
0.00597643
0.00607625
0.00617687
0.00627663
0.00637366
0.00646602
0.00655153
0.00662803
0.00669313
0.00674464
0.00678
0.0067972
0.0067935
0.00676742
0.00671587
0.00663843
0.00653104
0.00639547
0.0062252
0.00602641
0.00578681
0.00552186
0.00520596
0.00487474
0.00447254
0.00407946
0.00357166
0.00312907
0.00246898
0.00200169
0.00106359
0.0477118
0.0463565
0.0440731
0.0420193
0.0398084
0.0375977
0.0353401
0.0330561
0.0307403
0.028393
0.0260132
0.0235965
0.0211416
0.0186409
0.0160928
0.0134856
0.0108174
0.00807068
0.00524382
0.00230954
-0.000732261
-0.00392566
-0.00726668
-0.0108324
-0.0146072
-0.0187448
-0.0231935
-0.0283212
-0.0337203
-0.040111
-0.0447352
-0.0434461
-0.0384198
-0.0307616
-0.0224314
-0.0167684
-0.013103
-0.0102878
-0.00826883
-0.00668427
-0.00547406
-0.00450964
-0.00373959
-0.00306117
-0.00244296
-0.00174643
-0.000985545
-0.000400338
6.19029e-05
0.000482415
0.000887482
0.00146597
0.00245734
0.00396034
0.00620898
0.00933157
0.0132291
0.0175259
0.0215741
0.0247387
0.0266421
0.0272171
0.0267143
0.0254366
0.0237337
0.0218208
0.0198507
0.0179286
0.0160732
0.0143936
0.0128681
0.0115052
0.0102968
0.0092228
0.00830511
0.00752202
0.00689911
0.00643657
0.00609082
0.00585478
0.00569443
0.00558345
0.00553066
0.00547098
0.005497
0.00542533
0.00548846
0.00553051
0.00540771
0.00539467
0.00531276
0.0052727
0.0052194
0.0051859
0.00515423
0.00513371
0.00511754
0.00510786
0.00510164
0.00509911
0.00509891
0.00510106
0.00510516
0.00511148
0.00512022
0.00513191
0.0051471
0.00516646
0.0051906
0.00522018
0.00525573
0.00529773
0.00534651
0.00540229
0.00546511
0.00553486
0.00561122
0.00569372
0.00578166
0.00587415
0.00597011
0.00606825
0.00616708
0.00626494
0.00635999
0.00645027
0.00653361
0.00660788
0.00667068
0.00671984
0.00675281
0.0067676
0.00676148
0.00673298
0.00667901
0.0065992
0.00648944
0.00635158
0.00617901
0.00597807
0.00573621
0.00546926
0.00515106
0.004818
0.00441328
0.00401849
0.0035077
0.00306377
0.0024027
0.00194203
0.0010387
0.0477315
0.0463743
0.0440792
0.0420177
0.0398077
0.0375955
0.0353379
0.0330536
0.0307376
0.0283901
0.0260101
0.0235931
0.0211379
0.0186369
0.0160885
0.0134809
0.0108124
0.00806522
0.0052381
0.0023034
-0.00073835
-0.00393171
-0.00727144
-0.010835
-0.0146034
-0.0187282
-0.023142
-0.0281825
-0.0333527
-0.0391559
-0.0433906
-0.0423595
-0.0379341
-0.0309865
-0.0229594
-0.0172278
-0.0135157
-0.0106512
-0.00857704
-0.00694691
-0.00569282
-0.00469098
-0.00389368
-0.00320403
-0.00259404
-0.00194201
-0.00121849
-0.00062647
-0.000139832
0.000281582
0.000693229
0.00120832
0.00204646
0.00336375
0.00541653
0.00841063
0.0122721
0.0166221
0.0207559
0.0239892
0.025928
0.0265192
0.0260445
0.0248167
0.0231964
0.0213716
0.0194854
0.0176229
0.0158014
0.0141724
0.0126952
0.0113731
0.0101929
0.00913243
0.00822521
0.00744781
0.00684795
0.00642305
0.00610965
0.00590401
0.00576199
0.00566198
0.0056105
0.00554899
0.00556403
0.00548644
0.00552427
0.00554444
0.00542477
0.00540939
0.00533025
0.0052918
0.00524054
0.00520859
0.00517797
0.0051579
0.00514151
0.00513105
0.00512356
0.00511945
0.00511746
0.00511775
0.00512002
0.00512459
0.00513172
0.00514195
0.00515582
0.00517398
0.00519705
0.00522561
0.0052602
0.00530126
0.00534909
0.00540389
0.00546568
0.00553433
0.00560953
0.00569077
0.00577737
0.00586842
0.00596283
0.00605933
0.0061564
0.00625242
0.00634551
0.00643374
0.00651494
0.00658699
0.00664749
0.0066943
0.00672485
0.00673718
0.00672857
0.00669758
0.00664109
0.0065588
0.00644654
0.00630627
0.00613125
0.00592803
0.00568376
0.00541469
0.00509409
0.00475913
0.00435191
0.00395556
0.00344229
0.00299795
0.00233799
0.00188572
0.00101561
0.0477482
0.0463966
0.0440924
0.0420197
0.0398106
0.0375967
0.0353393
0.0330547
0.030739
0.0283917
0.0260121
0.0235955
0.021141
0.0186406
0.016093
0.0134864
0.0108192
0.00807347
0.00524842
0.00231618
-0.000721953
-0.00391072
-0.00724324
-0.0107965
-0.0145471
-0.0186413
-0.0229936
-0.0279052
-0.0328172
-0.0380697
-0.0419725
-0.041221
-0.0373578
-0.0310791
-0.0233707
-0.017593
-0.0138545
-0.0109624
-0.00884837
-0.00718298
-0.00589217
-0.00485733
-0.00403458
-0.00333406
-0.00272907
-0.00211967
-0.00144827
-0.000882034
-0.000407834
-3.08925e-05
0.000340682
0.000747022
0.00139835
0.00251317
0.00437239
0.00727139
0.0111432
0.015587
0.0198208
0.0231102
0.0250597
0.0256462
0.0251938
0.0240257
0.0225121
0.0208025
0.0190198
0.0172263
0.0154493
0.013892
0.0124826
0.0112123
0.0100608
0.00900273
0.00808716
0.00728805
0.00669944
0.00631878
0.00604828
0.00588894
0.00577878
0.00570178
0.00565945
0.00560243
0.0056088
0.00552941
0.00554848
0.00555236
0.00543706
0.00541719
0.00534084
0.00530334
0.00525457
0.0052246
0.00519581
0.00517696
0.00516113
0.00515059
0.00514241
0.00513717
0.00513373
0.00513239
0.00513295
0.00513584
0.00514136
0.0051501
0.0051626
0.00517952
0.00520145
0.00522897
0.00526259
0.00530273
0.00534968
0.00540359
0.00546449
0.00553223
0.00560647
0.00568671
0.00577225
0.00586217
0.00595539
0.00605061
0.00614633
0.0062409
0.00633246
0.00641906
0.00649855
0.00656879
0.0066274
0.00667223
0.00670073
0.00671096
0.00670017
0.00666697
0.00660822
0.00652367
0.00640912
0.00626662
0.00608931
0.00588394
0.00563742
0.00536638
0.00504358
0.00470694
0.00429763
0.00390019
0.00338554
0.0029421
0.00228569
0.00184332
0.000999192
0.0477638
0.0464234
0.0441126
0.0420254
0.0398173
0.0376012
0.0353441
0.0330596
0.0307445
0.028398
0.0260193
0.0236039
0.0211508
0.0186521
0.0161067
0.0135024
0.0108383
0.00809606
0.00527556
0.00234881
-0.000681978
-0.00386139
-0.00718058
-0.0107152
-0.0144365
-0.0184837
-0.0227517
-0.0275036
-0.0321428
-0.0368668
-0.0404502
-0.0399886
-0.0366935
-0.0310809
-0.023713
-0.0179007
-0.0141401
-0.0112346
-0.00909266
-0.00740097
-0.00607938
-0.00501493
-0.00416791
-0.0034572
-0.00285641
-0.00228721
-0.00167305
-0.00115119
-0.000711798
-0.000407186
-9.84051e-05
0.000180362
0.000633609
0.00154361
0.00321436
0.00603579
0.00992572
0.0144477
0.0187354
0.0220235
0.0239388
0.0245025
0.0240865
0.0230114
0.0216552
0.0200944
0.0184417
0.0166976
0.0149098
0.0134136
0.0120785
0.0108718
0.00975645
0.0087027
0.00777824
0.0069553
0.00639784
0.0060932
0.00589282
0.00580648
0.00574779
0.00570905
0.00568524
0.00563935
0.00563949
0.00556148
0.00556377
0.00555229
0.00544244
0.00541729
0.00534437
0.00530806
0.00526273
0.00523565
0.00520977
0.00519309
0.00517865
0.00516867
0.00516028
0.00515421
0.00514947
0.00514657
0.0051454
0.00514653
0.00515034
0.00515748
0.0051685
0.00518408
0.00520479
0.00523122
0.00526385
0.00530306
0.00534912
0.0054022
0.00546227
0.00552917
0.00560256
0.00568192
0.00576653
0.00585547
0.00594764
0.00604174
0.00613626
0.00622953
0.0063197
0.00640482
0.00648271
0.00655126
0.00660808
0.00665101
0.00667752
0.00668567
0.00667272
0.00663732
0.0065763
0.00648947
0.00637259
0.00622782
0.00604819
0.00584064
0.00559186
0.00531885
0.00499394
0.0046557
0.00424461
0.00384641
0.00333125
0.00288948
0.00223811
0.00180532
0.000984011
0.0477785
0.0464547
0.0441404
0.0420362
0.0398282
0.0376098
0.035353
0.033069
0.0307549
0.0284097
0.0260328
0.0236194
0.0211688
0.018673
0.016131
0.0135309
0.0108717
0.00813544
0.00532234
0.00240455
-0.000614635
-0.00377933
-0.00707837
-0.0105854
-0.0142655
-0.0182492
-0.0224131
-0.0269808
-0.0313472
-0.0355872
-0.0388667
-0.0386735
-0.0359317
-0.0309846
-0.0239889
-0.0181587
-0.0143716
-0.0114611
-0.00930172
-0.00759295
-0.00624791
-0.00515828
-0.00428837
-0.00356691
-0.00296824
-0.00243597
-0.00188158
-0.00141797
-0.00102952
-0.000818279
-0.000583447
-0.000435223
-0.000173049
0.000549515
0.0020548
0.0048277
0.0087395
0.0133031
0.0175729
0.0207837
0.0226111
0.0231368
0.0227796
0.0218463
0.020706
0.0193559
0.0178516
0.0161779
0.0144381
0.0130543
0.011831
0.0106967
0.0096062
0.00852485
0.00753709
0.00660487
0.00602894
0.00579697
0.00566864
0.00566831
0.0056723
0.00568224
0.00568384
0.00565474
0.0056514
0.00557845
0.00556688
0.00554161
0.00543834
0.00540714
0.00533798
0.00530318
0.00526236
0.00523934
0.00521771
0.00520444
0.00519249
0.00518395
0.00517599
0.00516956
0.00516382
0.00515951
0.00515669
0.00515608
0.00515816
0.00516364
0.00517314
0.00518733
0.00520681
0.00523213
0.00526377
0.0053021
0.00534736
0.00539968
0.00545904
0.00552525
0.00559794
0.00567659
0.00576045
0.00584861
0.00593993
0.00603311
0.00612663
0.00621881
0.00630778
0.00639158
0.00646805
0.00653505
0.00659019
0.00663134
0.00665594
0.00666208
0.00664702
0.00660944
0.00654616
0.00645706
0.00633784
0.00619078
0.00600882
0.00579909
0.00554811
0.00527316
0.00494629
0.0046066
0.00419414
0.00379551
0.00328075
0.00284126
0.00219611
0.00177207
0.000970002
0.0477931
0.0464903
0.0441758
0.0420528
0.0398441
0.0376229
0.0353666
0.0330832
0.0307706
0.0284274
0.026053
0.0236426
0.0211956
0.018704
0.0161671
0.0135728
0.0109209
0.00819308
0.00539043
0.00248533
-0.000517732
-0.00366209
-0.00693394
-0.0104043
-0.0140318
-0.0179367
-0.0219808
-0.0263473
-0.0304472
-0.0342506
-0.0372401
-0.0372787
-0.0350661
-0.0307904
-0.0242098
-0.0183869
-0.0145631
-0.0116475
-0.00947736
-0.00775912
-0.0063977
-0.0052879
-0.00439721
-0.00366452
-0.00306572
-0.00256548
-0.00206745
-0.00166602
-0.00133217
-0.00122259
-0.00105441
-0.00102116
-0.000930003
-0.000367794
0.00100016
0.00374814
0.00766082
0.0121962
0.0163481
0.0193902
0.0210777
0.0215606
0.0212991
0.0205545
0.0197026
0.0185694
0.0172535
0.0155243
0.0135788
0.0122582
0.0111531
0.0101202
0.00907804
0.00799646
0.00697698
0.00597478
0.00545064
0.00535446
0.00533977
0.0054593
0.00554844
0.00562355
0.00566041
0.00565463
0.0056501
0.00558403
0.0055594
0.0055201
0.00542367
0.00538577
0.0053206
0.00528797
0.00525295
0.00523554
0.00521977
0.00521141
0.00520317
0.00519703
0.00519019
0.00518386
0.00517739
0.0051718
0.00516736
0.00516499
0.00516528
0.00516905
0.00517697
0.00518974
0.00520795
0.00523218
0.00526285
0.00530034
0.00534486
0.00539651
0.00545525
0.00552087
0.00559299
0.00567105
0.0057543
0.00584179
0.00593239
0.00602476
0.00611738
0.00620855
0.00629639
0.00637894
0.00645402
0.00651948
0.00657294
0.00661228
0.00663492
0.006639
0.00662175
0.0065819
0.00651626
0.00642478
0.00630314
0.0061537
0.00596936
0.00575739
0.00550419
0.00522731
0.00489862
0.00455759
0.00414415
0.00374536
0.0032318
0.00279489
0.00215678
0.0017402
0.000955283
0.0478078
0.0465297
0.0442188
0.0420759
0.0398653
0.0376412
0.0353853
0.0331029
0.0307923
0.0284517
0.0260806
0.0236742
0.021232
0.018746
0.0162159
0.0136295
0.010987
0.00827046
0.00548154
0.00259307
-0.000389132
-0.00350729
-0.00674484
-0.0101694
-0.0137336
-0.0175461
-0.0214581
-0.0256122
-0.0294557
-0.0328725
-0.0355916
-0.0358166
-0.0340906
-0.030486
-0.0243733
-0.0185966
-0.0147262
-0.0117993
-0.00961989
-0.00789778
-0.00652666
-0.00540213
-0.00449362
-0.00374928
-0.00314786
-0.00267425
-0.00222675
-0.00188551
-0.00160139
-0.00159482
-0.00147308
-0.00152801
-0.00158244
-0.00114562
0.000121455
0.00286661
0.00674296
0.0111617
0.0150841
0.0178715
0.0193845
0.0198454
0.0197364
0.0192683
0.0187792
0.0180023
0.01681
0.0151709
0.0133844
0.0122201
0.0112802
0.0103133
0.00926605
0.00809875
0.00689661
0.0055564
0.00491065
0.00492292
0.00499525
0.00523213
0.00540547
0.00554673
0.00561983
0.00563926
0.00563466
0.00557742
0.00554117
0.00548746
0.00539719
0.00535165
0.00529029
0.00526058
0.00523286
0.00522296
0.005215
0.00521331
0.00521024
0.00520763
0.0052027
0.00519699
0.0051901
0.00518342
0.00517743
0.00517331
0.00517179
0.00517382
0.00518012
0.00519145
0.00520842
0.00523157
0.00526133
0.00529804
0.0053419
0.00539298
0.00545121
0.00551636
0.00558802
0.00566561
0.00574835
0.00583529
0.00592527
0.00601692
0.0061087
0.00619892
0.00628567
0.00636697
0.00644064
0.00650453
0.00655626
0.00659371
0.00661431
0.0066162
0.00659665
0.0065544
0.00648628
0.00639229
0.0062681
0.00611618
0.00592937
0.00571509
0.0054597
0.0051809
0.00485053
0.00450828
0.00409426
0.00369555
0.00318392
0.00274971
0.00211923
0.00170863
0.00093923
0.0478229
0.0465723
0.0442688
0.0421059
0.0398923
0.0376652
0.0354095
0.0331283
0.0308203
0.028483
0.0261161
0.0237148
0.0212786
0.0187998
0.0162781
0.0137017
0.0110711
0.00836865
0.00559683
0.00272906
-0.000227464
-0.00331352
-0.00650978
-0.00987988
-0.013371
-0.017079
-0.0208502
-0.0247864
-0.0283849
-0.0314616
-0.0339329
-0.0343003
-0.033004
-0.030057
-0.0244705
-0.0187941
-0.0148738
-0.0119256
-0.00973355
-0.00800964
-0.00663446
-0.00550071
-0.00457836
-0.00382278
-0.00321648
-0.00276353
-0.00235875
-0.00207036
-0.00182343
-0.00191706
-0.00181057
-0.00192022
-0.00209633
-0.00174551
-0.000538202
0.00221794
0.00599853
0.0101942
0.0137738
0.016236
0.0175631
0.0180329
0.018131
0.0179595
0.0179279
0.0173675
0.0166047
0.0145298
0.0117947
0.0107399
0.0100146
0.00922961
0.00826346
0.0071437
0.0059653
0.00459513
0.00409918
0.00433496
0.0045626
0.00495411
0.00523447
0.005457
0.00557382
0.00562214
0.00561581
0.00556416
0.00551441
0.00544425
0.00535875
0.00530459
0.00524646
0.00522048
0.00520163
0.0052014
0.00520338
0.00521034
0.005214
0.00521612
0.00521392
0.00520938
0.00520238
0.00519476
0.00518728
0.00518142
0.00517807
0.00517833
0.00518301
0.00519291
0.00520863
0.00523074
0.00525964
0.00529565
0.00533892
0.00538952
0.00544734
0.00551211
0.0055834
0.0056606
0.00574292
0.00582937
0.00591875
0.00600971
0.00610067
0.00618991
0.00627551
0.0063555
0.00642766
0.00648987
0.00653973
0.00657512
0.00659351
0.00659304
0.00657098
0.00652615
0.00645536
0.00635868
0.00623179
0.00607723
0.00588787
0.0056712
0.0054136
0.00513288
0.00480101
0.00445763
0.00404344
0.00364498
0.00313594
0.00270435
0.00208196
0.00167581
0.000921023
0.0478388
0.0466174
0.0443251
0.042143
0.0399253
0.037695
0.0354396
0.03316
0.030855
0.0285217
0.0261599
0.0237647
0.0213359
0.0188657
0.0163543
0.01379
0.0111737
0.00848841
0.00573711
0.00289416
-3.1895e-05
-0.00308
-0.00622828
-0.0095356
-0.0129451
-0.0165387
-0.0201628
-0.0238801
-0.0272455
-0.0300242
-0.0322712
-0.0327432
-0.0318107
-0.0294884
-0.0244834
-0.0189757
-0.0150144
-0.0120351
-0.00982373
-0.00809634
-0.0067206
-0.00558291
-0.00465156
-0.00388605
-0.00327359
-0.00283557
-0.00246596
-0.00222037
-0.00199351
-0.00218559
-0.00205573
-0.00218537
-0.002466
-0.00215503
-0.000960733
0.00180565
0.00540661
0.00926476
0.0124026
0.0145035
0.0156702
0.0162187
0.0166055
0.0168647
0.0173475
0.0175023
0.0164459
0.0149046
0.0132197
0.0121178
0.0115555
0.0107321
0.00969466
0.00841606
0.00681904
0.00446856
0.00349992
0.00392243
0.00421569
0.00472581
0.00508761
0.00537109
0.00552108
0.00559385
0.00558611
0.00554269
0.00548156
0.00539272
0.00530808
0.0052433
0.00518709
0.00516588
0.00515789
0.00517004
0.00518452
0.00520243
0.00521456
0.00522271
0.00522411
0.00522131
0.00521452
0.00520613
0.00519724
0.00518964
0.00518446
0.00518295
0.005186
0.00519447
0.00520899
0.00523011
0.00525821
0.00529357
0.00533635
0.00538655
0.00544403
0.00550849
0.00557948
0.00565635
0.00573828
0.00582425
0.00591305
0.00600329
0.00609337
0.00618155
0.00626591
0.00634445
0.00641496
0.00647531
0.0065231
0.00655623
0.00657216
0.0065691
0.00654431
0.00649665
0.00642297
0.0063234
0.00619363
0.00603628
0.00584425
0.0056251
0.00536531
0.00508267
0.00474947
0.00440507
0.0039911
0.00359304
0.00308718
0.00265803
0.00204411
0.0016409
0.000900241
0.0478559
0.0466648
0.0443868
0.042187
0.0399644
0.0377309
0.0354758
0.0331982
0.0308966
0.0285681
0.0262123
0.0238243
0.0214041
0.0189442
0.0164448
0.0138948
0.0112954
0.0086301
0.00590274
0.00308869
0.000197774
-0.00280672
-0.00590078
-0.00913772
-0.0124583
-0.0159293
-0.0194024
-0.0229034
-0.0260473
-0.0285649
-0.0306093
-0.031157