# vtk DataFile Version 2.0
insac
ASCII
DATASET STRUCTURED_GRID
DIMENSIONS 151 51 1
POINTS 7701 float
0 0 0
0.0703713 0 0
0.140743 0 0
0.211114 0 0
0.281485 0 0
0.351857 0 0
0.422228 0 0
0.492599 0 0
0.562971 0 0
0.633342 0 0
0.703713 0 0
0.774085 0 0
0.844456 0 0
0.914827 0 0
0.985199 0 0
1.05557 0 0
1.12594 0 0
1.19631 0 0
1.26668 0 0
1.33706 0 0
1.40743 0 0
1.4778 0 0
1.54817 0 0
1.61854 0 0
1.68891 0 0
1.75928 0 0
1.82965 0 0
1.90003 0 0
1.9704 0 0
2.04077 -0.00166634 0
2.11114 -0.0125128 0
2.18151 -0.0341173 0
2.25188 -0.0680912 0
2.32225 -0.117717 0
2.39263 -0.176764 0
2.463 -0.235812 0
2.53337 -0.294859 0
2.60374 -0.353906 0
2.67411 -0.412954 0
2.74448 -0.472001 0
2.81485 -0.531049 0
2.88522 -0.590096 0
2.9556 -0.649144 0
3.02597 -0.708191 0
3.09634 -0.767239 0
3.16671 -0.826286 0
3.23708 -0.885317 0
3.30745 -0.934009 0
3.37782 -0.967283 0
3.4482 -0.988302 0
3.51857 -0.998618 0
3.58894 -1 0
3.65931 -1 0
3.72968 -1 0
3.80005 -1 0
3.87042 -1 0
3.94079 -1 0
4.01117 -1 0
4.08154 -1 0
4.15191 -1 0
4.22228 -1 0
4.29265 -1 0
4.36302 -1 0
4.43339 -1 0
4.50377 -1 0
4.57414 -1 0
4.64451 -1 0
4.71488 -1 0
4.78525 -1 0
4.85562 -1 0
4.92599 -1 0
4.99636 -1 0
5.06674 -1 0
5.13711 -1 0
5.20748 -1 0
5.27785 -1 0
5.34822 -1 0
5.41859 -1 0
5.48896 -1 0
5.55934 -1 0
5.62971 -1 0
5.70008 -1 0
5.77045 -1 0
5.84082 -1 0
5.91119 -1 0
5.98156 -1 0
6.05193 -1 0
6.12231 -0.990625 0
6.19268 -0.98125 0
6.26305 -0.971875 0
6.33342 -0.9625 0
6.40379 -0.953125 0
6.47416 -0.94375 0
6.54453 -0.934375 0
6.61491 -0.925 0
6.68528 -0.915625 0
6.75565 -0.90625 0
6.82602 -0.896875 0
6.89639 -0.8875 0
6.96676 -0.878125 0
7.03713 -0.86875 0
7.1075 -0.859375 0
7.17788 -0.85 0
7.24825 -0.840625 0
7.31862 -0.83125 0
7.38899 -0.821875 0
7.45936 -0.8125 0
7.52973 -0.803125 0
7.6001 -0.79375 0
7.67048 -0.784375 0
7.74085 -0.775 0
7.81122 -0.765625 0
7.88159 -0.75625 0
7.95196 -0.746875 0
8.02233 -0.7375 0
8.0927 -0.728125 0
8.16307 -0.71875 0
8.23345 -0.709375 0
8.30382 -0.7 0
8.37419 -0.690625 0
8.44456 -0.68125 0
8.51493 -0.671875 0
8.5853 -0.6625 0
8.65567 -0.653125 0
8.72605 -0.64375 0
8.79642 -0.634375 0
8.86679 -0.625 0
8.93716 -0.615625 0
9.00753 -0.60625 0
9.0779 -0.596875 0
9.14827 -0.5875 0
9.21864 -0.578125 0
9.28902 -0.568749 0
9.35939 -0.559374 0
9.42976 -0.549999 0
9.50013 -0.540624 0
9.5705 -0.531249 0
9.64087 -0.521874 0
9.71124 -0.512499 0
9.78162 -0.503124 0
9.85199 -0.493749 0
9.92236 -0.484374 0
9.99273 -0.474999 0
10.0631 -0.465624 0
10.1335 -0.456249 0
10.2038 -0.446874 0
10.2742 -0.437499 0
10.3446 -0.428124 0
10.415 -0.418749 0
10.4853 -0.409374 0
10.5557 -0.399999 0
0 0.02 0
0.0703713 0.02 0
0.140743 0.02 0
0.211114 0.02 0
0.281485 0.02 0
0.351857 0.02 0
0.422228 0.02 0
0.492599 0.02 0
0.562971 0.02 0
0.633342 0.02 0
0.703713 0.02 0
0.774085 0.02 0
0.844456 0.02 0
0.914827 0.02 0
0.985199 0.02 0
1.05557 0.02 0
1.12594 0.02 0
1.19631 0.02 0
1.26668 0.02 0
1.33706 0.02 0
1.40743 0.02 0
1.4778 0.02 0
1.54817 0.02 0
1.61854 0.02 0
1.68891 0.02 0
1.75928 0.02 0
1.82965 0.02 0
1.90003 0.02 0
1.9704 0.02 0
2.04077 0.018367 0
2.11114 0.00773744 0
2.18151 -0.013435 0
2.25188 -0.0467294 0
2.32225 -0.0953622 0
2.39263 -0.153229 0
2.463 -0.211095 0
2.53337 -0.268962 0
2.60374 -0.326828 0
2.67411 -0.384695 0
2.74448 -0.442561 0
2.81485 -0.500428 0
2.88522 -0.558294 0
2.9556 -0.616161 0
3.02597 -0.674028 0
3.09634 -0.731894 0
3.16671 -0.789761 0
3.23708 -0.847611 0
3.30745 -0.895328 0
3.37782 -0.927937 0
3.4482 -0.948536 0
3.51857 -0.958645 0
3.58894 -0.96 0
3.65931 -0.96 0
3.72968 -0.96 0
3.80005 -0.96 0
3.87042 -0.96 0
3.94079 -0.96 0
4.01117 -0.96 0
4.08154 -0.96 0
4.15191 -0.96 0
4.22228 -0.96 0
4.29265 -0.96 0
4.36302 -0.96 0
4.43339 -0.96 0
4.50377 -0.96 0
4.57414 -0.96 0
4.64451 -0.96 0
4.71488 -0.96 0
4.78525 -0.96 0
4.85562 -0.96 0
4.92599 -0.96 0
4.99636 -0.96 0
5.06674 -0.96 0
5.13711 -0.96 0
5.20748 -0.96 0
5.27785 -0.96 0
5.34822 -0.96 0
5.41859 -0.96 0
5.48896 -0.96 0
5.55934 -0.96 0
5.62971 -0.96 0
5.70008 -0.96 0
5.77045 -0.96 0
5.84082 -0.96 0
5.91119 -0.96 0
5.98156 -0.96 0
6.05193 -0.96 0
6.12231 -0.950812 0
6.19268 -0.941625 0
6.26305 -0.932437 0
6.33342 -0.92325 0
6.40379 -0.914062 0
6.47416 -0.904875 0
6.54453 -0.895687 0
6.61491 -0.8865 0
6.68528 -0.877312 0
6.75565 -0.868125 0
6.82602 -0.858937 0
6.89639 -0.84975 0
6.96676 -0.840562 0
7.03713 -0.831375 0
7.1075 -0.822187 0
7.17788 -0.813 0
7.24825 -0.803812 0
7.31862 -0.794625 0
7.38899 -0.785437 0
7.45936 -0.77625 0
7.52973 -0.767062 0
7.6001 -0.757875 0
7.67048 -0.748687 0
7.74085 -0.7395 0
7.81122 -0.730312 0
7.88159 -0.721125 0
7.95196 -0.711937 0
8.02233 -0.70275 0
8.0927 -0.693562 0
8.16307 -0.684375 0
8.23345 -0.675187 0
8.30382 -0.666 0
8.37419 -0.656812 0
8.44456 -0.647625 0
8.51493 -0.638437 0
8.5853 -0.62925 0
8.65567 -0.620062 0
8.72605 -0.610875 0
8.79642 -0.601687 0
8.86679 -0.5925 0
8.93716 -0.583312 0
9.00753 -0.574125 0
9.0779 -0.564937 0
9.14827 -0.55575 0
9.21864 -0.546562 0
9.28902 -0.537374 0
9.35939 -0.528187 0
9.42976 -0.518999 0
9.50013 -0.509812 0
9.5705 -0.500624 0
9.64087 -0.491437 0
9.71124 -0.482249 0
9.78162 -0.473062 0
9.85199 -0.463874 0
9.92236 -0.454687 0
9.99273 -0.445499 0
10.0631 -0.436312 0
10.1335 -0.427124 0
10.2038 -0.417937 0
10.2742 -0.408749 0
10.3446 -0.399562 0
10.415 -0.390374 0
10.4853 -0.381187 0
10.5557 -0.371999 0
0 0.04 0
0.0703713 0.04 0
0.140743 0.04 0
0.211114 0.04 0
0.281485 0.04 0
0.351857 0.04 0
0.422228 0.04 0
0.492599 0.04 0
0.562971 0.04 0
0.633342 0.04 0
0.703713 0.04 0
0.774085 0.04 0
0.844456 0.04 0
0.914827 0.04 0
0.985199 0.04 0
1.05557 0.04 0
1.12594 0.04 0
1.19631 0.04 0
1.26668 0.04 0
1.33706 0.04 0
1.40743 0.04 0
1.4778 0.04 0
1.54817 0.04 0
1.61854 0.04 0
1.68891 0.04 0
1.75928 0.04 0
1.82965 0.04 0
1.90003 0.04 0
1.9704 0.04 0
2.04077 0.0384003 0
2.11114 0.0279877 0
2.18151 0.00724739 0
2.25188 -0.0253676 0
2.32225 -0.0730079 0
2.39263 -0.129693 0
2.463 -0.186379 0
2.53337 -0.243065 0
2.60374 -0.29975 0
2.67411 -0.356436 0
2.74448 -0.413121 0
2.81485 -0.469807 0
2.88522 -0.526493 0
2.9556 -0.583178 0
3.02597 -0.639864 0
3.09634 -0.696549 0
3.16671 -0.753235 0
3.23708 -0.809904 0
3.30745 -0.856648 0
3.37782 -0.888592 0
3.4482 -0.90877 0
3.51857 -0.918673 0
3.58894 -0.92 0
3.65931 -0.92 0
3.72968 -0.92 0
3.80005 -0.92 0
3.87042 -0.92 0
3.94079 -0.92 0
4.01117 -0.92 0
4.08154 -0.92 0
4.15191 -0.92 0
4.22228 -0.92 0
4.29265 -0.92 0
4.36302 -0.92 0
4.43339 -0.92 0
4.50377 -0.92 0
4.57414 -0.92 0
4.64451 -0.92 0
4.71488 -0.92 0
4.78525 -0.92 0
4.85562 -0.92 0
4.92599 -0.92 0
4.99636 -0.92 0
5.06674 -0.92 0
5.13711 -0.92 0
5.20748 -0.92 0
5.27785 -0.92 0
5.34822 -0.92 0
5.41859 -0.92 0
5.48896 -0.92 0
5.55934 -0.92 0
5.62971 -0.92 0
5.70008 -0.92 0
5.77045 -0.92 0
5.84082 -0.92 0
5.91119 -0.92 0
5.98156 -0.92 0
6.05193 -0.92 0
6.12231 -0.911 0
6.19268 -0.902 0
6.26305 -0.893 0
6.33342 -0.884 0
6.40379 -0.875 0
6.47416 -0.866 0
6.54453 -0.857 0
6.61491 -0.848 0
6.68528 -0.839 0
6.75565 -0.83 0
6.82602 -0.821 0
6.89639 -0.812 0
6.96676 -0.803 0
7.03713 -0.794 0
7.1075 -0.785 0
7.17788 -0.776 0
7.24825 -0.767 0
7.31862 -0.758 0
7.38899 -0.749 0
7.45936 -0.74 0
7.52973 -0.731 0
7.6001 -0.722 0
7.67048 -0.713 0
7.74085 -0.704 0
7.81122 -0.695 0
7.88159 -0.686 0
7.95196 -0.677 0
8.02233 -0.668 0
8.0927 -0.659 0
8.16307 -0.65 0
8.23345 -0.641 0
8.30382 -0.632 0
8.37419 -0.623 0
8.44456 -0.614 0
8.51493 -0.605 0
8.5853 -0.596 0
8.65567 -0.587 0
8.72605 -0.578 0
8.79642 -0.569 0
8.86679 -0.56 0
8.93716 -0.551 0
9.00753 -0.542 0
9.0779 -0.533 0
9.14827 -0.524 0
9.21864 -0.515 0
9.28902 -0.506 0
9.35939 -0.496999 0
9.42976 -0.487999 0
9.50013 -0.478999 0
9.5705 -0.469999 0
9.64087 -0.460999 0
9.71124 -0.451999 0
9.78162 -0.442999 0
9.85199 -0.433999 0
9.92236 -0.424999 0
9.99273 -0.415999 0
10.0631 -0.406999 0
10.1335 -0.397999 0
10.2038 -0.388999 0
10.2742 -0.379999 0
10.3446 -0.370999 0
10.415 -0.361999 0
10.4853 -0.352999 0
10.5557 -0.343999 0
0 0.06 0
0.0703713 0.06 0
0.140743 0.06 0
0.211114 0.06 0
0.281485 0.06 0
0.351857 0.06 0
0.422228 0.06 0
0.492599 0.06 0
0.562971 0.06 0
0.633342 0.06 0
0.703713 0.06 0
0.774085 0.06 0
0.844456 0.06 0
0.914827 0.06 0
0.985199 0.06 0
1.05557 0.06 0
1.12594 0.06 0
1.19631 0.06 0
1.26668 0.06 0
1.33706 0.06 0
1.40743 0.06 0
1.4778 0.06 0
1.54817 0.06 0
1.61854 0.06 0
1.68891 0.06 0
1.75928 0.06 0
1.82965 0.06 0
1.90003 0.06 0
1.9704 0.06 0
2.04077 0.0584336 0
2.11114 0.048238 0
2.18151 0.0279297 0
2.25188 -0.00400573 0
2.32225 -0.0506536 0
2.39263 -0.106158 0
2.463 -0.161663 0
2.53337 -0.217167 0
2.60374 -0.272672 0
2.67411 -0.328177 0
2.74448 -0.383681 0
2.81485 -0.439186 0
2.88522 -0.494691 0
2.9556 -0.550195 0
3.02597 -0.6057 0
3.09634 -0.661204 0
3.16671 -0.716709 0
3.23708 -0.772198 0
3.30745 -0.817968 0
3.37782 -0.849246 0
3.4482 -0.869004 0
3.51857 -0.878701 0
3.58894 -0.88 0
3.65931 -0.88 0
3.72968 -0.88 0
3.80005 -0.88 0
3.87042 -0.88 0
3.94079 -0.88 0
4.01117 -0.88 0
4.08154 -0.88 0
4.15191 -0.88 0
4.22228 -0.88 0
4.29265 -0.88 0
4.36302 -0.88 0
4.43339 -0.88 0
4.50377 -0.88 0
4.57414 -0.88 0
4.64451 -0.88 0
4.71488 -0.88 0
4.78525 -0.88 0
4.85562 -0.88 0
4.92599 -0.88 0
4.99636 -0.88 0
5.06674 -0.88 0
5.13711 -0.88 0
5.20748 -0.88 0
5.27785 -0.88 0
5.34822 -0.88 0
5.41859 -0.88 0
5.48896 -0.88 0
5.55934 -0.88 0
5.62971 -0.88 0
5.70008 -0.88 0
5.77045 -0.88 0
5.84082 -0.88 0
5.91119 -0.88 0
5.98156 -0.88 0
6.05193 -0.88 0
6.12231 -0.871187 0
6.19268 -0.862375 0
6.26305 -0.853562 0
6.33342 -0.84475 0
6.40379 -0.835937 0
6.47416 -0.827125 0
6.54453 -0.818312 0
6.61491 -0.8095 0
6.68528 -0.800687 0
6.75565 -0.791875 0
6.82602 -0.783062 0
6.89639 -0.77425 0
6.96676 -0.765437 0
7.03713 -0.756625 0
7.1075 -0.747812 0
7.17788 -0.739 0
7.24825 -0.730187 0
7.31862 -0.721375 0
7.38899 -0.712562 0
7.45936 -0.70375 0
7.52973 -0.694937 0
7.6001 -0.686125 0
7.67048 -0.677312 0
7.74085 -0.6685 0
7.81122 -0.659687 0
7.88159 -0.650875 0
7.95196 -0.642062 0
8.02233 -0.63325 0
8.0927 -0.624437 0
8.16307 -0.615625 0
8.23345 -0.606812 0
8.30382 -0.598 0
8.37419 -0.589187 0
[...]
POINT_DATA 7701
SCALARS pressure float 1
LOOKUP_TABLE default
0.196268
0.192901
0.187314
0.182333
0.176991
0.171739
0.166413
0.161083
0.15572
0.15033
0.144906
0.139443
0.133934
0.128371
0.122746
0.117046
0.111263
0.105377
0.0993783
0.093234
0.0869355
0.0804234
0.0736972
0.0666379
0.0592771
0.0513428
0.0429708
0.0333977
0.0231133
0.00715256
-0.00841162
-0.0117519
-0.00603912
0.00825246
0.0255094
0.0373858
0.0457825
0.052671
0.0579094
0.0622526
0.065777
0.0687643
0.0713312
0.0736387
0.0757435
0.0778083
0.0793861
0.0800987
0.0805207
0.0809314
0.0812271
0.0819185
0.0831137
0.0844587
0.0859768
0.0876136
0.089368
0.0912224
0.0931679
0.0951919
0.0972826
0.0994278
0.101615
0.103831
0.106064
0.108301
0.110531
0.112742
0.114923
0.117063
0.119155
0.121188
0.123157
0.125053
0.126873
0.12861
0.130265
0.131828
0.13331
0.134689
0.136003
0.137189
0.138351
0.139321
0.140382
0.141088
0.142184
0.143271
0.143743
0.144347
0.144642
0.144868
0.144895
0.144793
0.144527
0.144118
0.14356
0.142864
0.142031
0.141069
0.139982
0.138779
0.137464
0.136045
0.134528
0.13292
0.131227
0.129455
0.127609
0.125694
0.123717
0.121681
0.119591
0.117451
0.115263
0.113032
0.110759
0.108446
0.106097
0.103712
0.101292
0.0988375
0.0963496
0.093828
0.0912722
0.0886817
0.0860553
0.083392
0.08069
0.0779476
0.0751623
0.0723324
0.0694544
0.0665266
0.0635443
0.0605068
0.0574071
0.0542468
0.0510148
0.0477179
0.0443363
0.0408892
0.037337
0.0337272
0.0299749
0.0261952
0.0221911
0.0182512
0.0138504
0.00978302
0.00523366
0.196324
0.192916
0.187302
0.182333
0.176989
0.171739
0.166413
0.161082
0.155718
0.150327
0.144901
0.139436
0.133924
0.128358
0.12273
0.117026
0.111238
0.105346
0.0993408
0.0931881
0.0868796
0.0803545
0.0736127
0.0665317
0.0591439
0.0511658
0.0427337
0.0330325
0.0227683
0.00771755
-0.00671489
-0.00988666
-0.00500332
0.00803045
0.0246544
0.0365521
0.045032
0.0520024
0.0573247
0.061733
0.0653146
0.068345
0.0709401
0.0732598
0.0753504
0.0774032
0.0790572
0.0799066
0.0804436
0.0809569
0.0813608
0.0821025
0.0832737
0.084583
0.0860722
0.0876847
0.0894185
0.0912543
0.0931828
0.0951909
0.0972666
0.0993974
0.101571
0.103774
0.105995
0.108222
0.110441
0.112642
0.114815
0.116948
0.119033
0.121061
0.123025
0.124918
0.126735
0.12847
0.130124
0.131686
0.13317
0.13455
0.135867
0.137056
0.138226
0.139202
0.140283
0.141
0.142065
0.143095
0.143543
0.144145
0.144427
0.144648
0.144667
0.144561
0.14429
0.143878
0.143319
0.142622
0.141789
0.140827
0.139743
0.138541
0.137229
0.135814
0.134301
0.132696
0.131007
0.129239
0.127397
0.125487
0.123513
0.121481
0.119395
0.117258
0.115073
0.112844
0.110574
0.108264
0.105916
0.103532
0.101113
0.09866
0.0961724
0.0936508
0.0910947
0.0885035
0.0858762
0.0832116
0.080508
0.0777638
0.0749764
0.0721441
0.0692635
0.0663328
0.0633475
0.0603068
0.0572037
0.0540398
0.0508038
0.0475031
0.0441171
0.0406657
0.0371084
0.0334937
0.0297348
0.0259488
0.0219342
0.017983
0.0135663
0.00948392
0.00403651
0.196414
0.192941
0.187281
0.182326
0.176979
0.171732
0.166405
0.161073
0.155707
0.150314
0.144886
0.139418
0.133903
0.128333
0.122699
0.11699
0.111195
0.105295
0.0992796
0.0931146
0.0867916
0.0802478
0.0734838
0.0663718
0.0589464
0.0509086
0.0424014
0.0325556
0.0223519
0.00866909
-0.00406885
-0.0069265
-0.00318493
0.00788092
0.0234013
0.0352625
0.0438381
0.0509288
0.0563826
0.0608952
0.0645699
0.0676719
0.0703161
0.0726621
0.0747407
0.0767658
0.078513
0.0795603
0.0802726
0.0809381
0.0814985
0.0823143
0.0834574
0.084726
0.0861786
0.0877597
0.0894659
0.091277
0.0931827
0.0951696
0.0972253
0.0993375
0.101493
0.10368
0.105886
0.108098
0.110305
0.112494
0.114656
0.11678
0.118857
0.120878
0.122836
0.124724
0.126539
0.128271
0.129925
0.131487
0.132973
0.134355
0.135677
0.13687
0.138051
0.139033
0.14014
0.140862
0.141888
0.142852
0.143263
0.143862
0.144124
0.144337
0.144345
0.144231
0.143952
0.143536
0.142973
0.142273
0.141439
0.140478
0.139394
0.138195
0.136886
0.135474
0.133965
0.132365
0.130681
0.128918
0.127081
0.125176
0.123208
0.121181
0.119099
0.116967
0.114786
0.112561
0.110294
0.107987
0.105641
0.103259
0.100842
0.0983892
0.095902
0.0933801
0.0908233
0.088231
0.085602
0.0829353
0.0802291
0.0774819
0.0746912
0.0718552
0.0689704
0.0660354
0.0630453
0.0599996
0.056891
0.0537216
0.0504796
0.0471727
0.04378
0.0403219
0.0367566
0.0331344
0.0293654
0.0255703
0.0215407
0.017575
0.0131427
0.0090535
0.00382563
0.196487
0.192975
0.187279
0.182323
0.176975
0.171728
0.166401
0.161068
0.155701
0.150307
0.144878
0.139408
0.133891
0.128318
0.122681
0.116968
0.111169
0.105264
0.0992424
0.09307
0.0867386
0.0801838
0.0734074
0.0662786
0.0588348
0.0507711
0.0422447
0.0323995
0.0223369
0.00963645
-0.00196542
-0.00459332
-0.00152811
0.00808467
0.022634
0.0343556
0.0429308
0.0500849
0.0556284
0.0602172
0.0639629
0.0671211
0.0698056
0.0721759
0.0742588
0.0762568
0.0780461
0.0792238
0.0800639
0.080838
0.0815069
0.082377
0.0835131
0.0847708
0.0862054
0.0877694
0.0894591
0.0912554
0.0931473
0.0951215
0.0971657
0.0992671
0.101413
0.103591
0.105789
0.107993
0.110193
0.112377
0.114534
0.116654
0.118727
0.120745
0.122701
0.124587
0.126401
0.128133
0.129787
0.131349
0.132837
0.13422
0.135546
0.136741
0.137931
0.138913
0.140036
0.140743
0.141753
0.142694
0.143071
0.143667
0.143913
0.144118
0.144115
0.143994
0.143709
0.143287
0.142718
0.142015
0.141179
0.140215
0.139131
0.137931
0.136623
0.135212
0.133705
0.132108
0.130426
0.128665
0.126832
0.12493
0.122965
0.120941
0.118863
0.116733
0.114555
0.112333
0.110068
0.107763
0.105419
0.103038
0.100622
0.0981697
0.0956827
0.0931607
0.0906034
0.0880101
0.0853799
0.0827117
0.0800036
0.0772542
0.0744609
0.0716221
0.0687342
0.0657959
0.0628022
0.0597526
0.05664
0.0534663
0.0502198
0.0469084
0.0435104
0.0400475
0.0364761
0.0328489
0.0290726
0.0252721
0.0212337
0.0172635
0.0128351
0.00876662
0.00369338
0.196552
0.193014
0.187283
0.182322
0.176974
0.171726
0.166398
0.161066
0.155698
0.150303
0.144872
0.139401
0.133883
0.128308
0.122669
0.116953
0.111151
0.105242
0.0992171
0.0930398
0.086703
0.0801414
0.0733582
0.0662207
0.0587704
0.050702
0.0421905
0.0324254
0.0226021
0.0108808
0.000300505
-0.00220118
0.000225044
0.00846568
0.0220346
0.0335668
0.0420911
0.0492743
0.0548884
0.0595417
0.0633512
0.0665608
0.0692824
0.071673
0.0737625
0.0757338
0.0775545
0.0788487
0.0798057
0.0806818
0.0814564
0.0823818
0.0835167
0.0847718
0.0861932
0.0877445
0.0894206
0.0912046
0.0930849
0.0950486
0.0970831
0.0991758
0.101314
0.103485
0.105676
0.107875
0.11007
0.11225
0.114403
0.11652
0.118591
0.120607
0.122562
0.124447
0.12626
0.127992
0.129647
0.13121
0.1327
0.134085
0.135415
0.13661
0.137809
0.13879
0.139928
0.140616
0.141611
0.142536
0.142875
0.143467
0.143695
0.143892
0.143878
0.143748
0.143454
0.143026
0.142452
0.141744
0.140903
0.139938
0.138851
0.137651
0.136343
0.134933
0.133427
0.131832
0.130152
0.128395
0.126564
0.124666
0.122704
0.120684
0.118609
0.116482
0.114308
0.112088
0.109826
0.107523
0.105182
0.102803
0.100387
0.0979361
0.0954497
0.0929279
0.0903704
0.0877766
0.0851454
0.0824758
0.0797661
0.0770147
0.0742191
0.0713777
0.0684869
0.0655454
0.0625483
0.0594951
0.0563785
0.0532009
0.0499498
0.0466342
0.0432312
0.0397638
0.0361868
0.0325553
0.0287726
0.0249684
0.0209245
0.0169546
0.0125394
0.00849943
0.00357204
0.196603
0.193053
0.187295
0.182323
0.176976
0.171726
0.166399
0.161066
0.155698
0.150303
0.144872
0.1394
0.133881
0.128306
0.122666
0.116949
0.111147
0.105237
0.0992106
0.0930321
0.0866949
0.0801329
0.0733513
0.0662171
0.0587769
0.0507319
0.0422769
0.0326696
0.0231555
0.0123281
0.00259522
0.000134289
0.00202032
0.00904997
0.0216651
0.0329645
0.0413982
0.0485736
0.0542331
0.058934
0.062795
0.0660479
0.0688024
0.0712097
0.0733086
0.07525
0.0770788
0.0784597
0.0795074
0.0804631
0.0813267
0.0823006
0.0834406
0.084705
0.0861224
0.0876696
0.089339
0.0911169
0.092991
0.0949494
0.096979
0.0990676
0.101202
0.10337
0.105559
0.107757
0.10995
0.112129
0.114282
0.116398
0.118469
0.120486
0.122441
0.124327
0.126141
0.127873
0.129529
0.131093
0.132585
0.13397
0.135304
0.136499
0.137704
0.138681
0.13983
0.140494
0.141479
0.142399
0.142701
0.14329
0.143502
0.143689
0.143664
0.143525
0.143222
0.142786
0.142205
0.141492
0.140647
0.139678
0.138589
0.137387
0.136078
0.134668
0.133163
0.131569
0.129892
0.128137
0.126309
0.124413
0.122455
0.120438
0.118366
0.116243
0.114072
0.111855
0.109596
0.107295
0.104956
0.102579
0.100165
0.0977156
0.0952301
0.0927089
0.0901516
0.0875577
0.0849261
0.0822556
0.0795447
0.0767918
0.0739944
0.0711509
0.0682577
0.0653136
0.0623135
0.0592573
0.0561372
0.0529562
0.0497013
0.0463821
0.0429749
0.0395041
0.0359225
0.0322881
0.0285009
0.0246958
0.0206508
0.0166875
0.0122938
0.00828748
0.00347829
0.196644
0.193093
0.187313
0.182326
0.176982
0.171729
0.166403
0.161069
0.155702
0.150307
0.144876
0.139405
0.133886
0.128312
0.122673
0.116957
0.111156
0.105247
0.0992235
0.0930481
0.0867155
0.0801598
0.0733883
0.0662697
0.0588564
0.0508614
0.0424998
0.0331084
0.0239544
0.0139751
0.00499367
0.00250601
0.0038818
0.0097973
0.0214694
0.0325025
0.0408225
0.0479618
0.0536449
0.0583777
0.0622792
0.065567
0.0683495
0.0707684
0.0728765
0.0747865
0.0766105
0.0780594
0.0791788
0.0801989
0.0811423
0.0821614
0.0833093
0.0845887
0.0860074
0.0875558
0.0892227
0.0909986
0.0928702
0.0948265
0.0968544
0.0989418
0.101076
0.103243
0.105432
0.10763
0.109825
0.112004
0.114158
0.116276
0.118348
0.120366
0.122322
0.124209
0.126024
0.127758
0.129415
0.13098
0.132473
0.133858
0.135195
0.136389
0.137599
0.138569
0.139728
0.140367
0.141342
0.142259
0.142524
0.143108
0.143302
0.143479
0.143442
0.143293
0.142981
0.142536
0.141948
0.141229
0.140379
0.139406
0.138315
0.137111
0.135802
0.134392
0.132888
0.131295
0.12962
0.127868
0.126043
0.124151
0.122197
0.120184
0.118116
0.115997
0.113829
0.111616
0.109361
0.107064
0.104728
0.102353
0.099942
0.0974943
0.0950105
0.0924906
0.0899342
0.0873407
0.0847092
0.0820385
0.079327
0.0765731
0.0737743
0.0709292
0.0680341
0.0650878
0.0620852
0.0590264
0.0559034
0.0527195
0.0494613
0.0461391
0.0427282
0.0392548
0.0356696
0.0320335
0.0282437
0.02444
0.0203977
0.0164453
0.0120783
0.00810659
0.00339903
0.196676
0.193134
0.187336
0.182332
0.17699
0.171734
0.166409
0.161076
0.15571
0.150316
0.144887
0.139417
0.1339
0.128327
0.122691
0.116978
0.11118
0.105276
0.0992587
0.0930908
0.0867686
0.0802266
0.0734748
0.0663851
0.0590163
0.0510978
0.042864
0.0337337
0.0249687
0.0157784
0.00746976
0.00491846
0.00581581
0.0107029
0.0214361
0.032168
0.0403617
0.047445
0.0531336
0.0578836
0.0618148
0.0651296
0.0679354
0.0703617
0.072478
0.0743536
0.0761596
0.0776588
0.0788303
0.0798981
0.0809106
0.08197
0.0831271
0.0844264
0.0858511
0.0874057
0.0890748
0.0908529
0.0927258
0.0946836
0.096713
0.0988022
0.100938
0.103108
0.1053
0.1075
0.109697
0.111879
0.114036
0.116156
0.11823
0.12025
0.122208
0.124097
0.125913
0.127648
0.129306
0.130871
0.132365
0.13375
0.135089
0.136279
0.137493
0.138454
0.139618
0.140232
0.141197
0.142112
0.142341
0.142918
0.143095
0.143261
0.14321
0.14305
0.142728
0.142275
0.14168
0.140954
0.140099
0.139122
0.138028
0.136823
0.135513
0.134104
0.132601
0.131011
0.129339
0.12759
0.125769
0.123882
0.121932
0.119923
0.11786
0.115746
0.113584
0.111376
0.109124
0.106832
0.1045
0.102129
0.0997211
0.0972764
0.0947951
0.0922773
0.0897225
0.0871304
0.0844997
0.0818294
0.0791179
0.0763637
0.0735642
0.070718
0.0678215
0.0648735
0.0618689
0.058808
0.0556825
0.0524963
0.0492352
0.0459107
0.042497
0.0390216
0.0354339
0.0317975
0.0280069
0.0242069
0.0201708
0.0162327
0.0118957
0.00795747
0.00333423
0.1967
0.193175
0.187365
0.18234
0.177002
0.171742
0.166419
0.161087
0.155722
0.15033
0.144903
0.139435
0.133922
0.128352
0.122721
0.117013
0.111222
0.105326
0.0993179
0.0931626
0.0868567
0.0803364
0.0736142
0.0665669
0.0592601
0.0514427
0.0433661
0.0345303
0.026167
0.0177069
0.0100128
0.00738407
0.00783129
0.0117598
0.0215485
0.0319387
0.0399985
0.047013
0.0526946
0.0574503
0.0614009
0.0647352
0.0675598
0.0699893
0.0721125
0.0739518
0.0757306
0.0772671
0.0784752
0.0795764
0.0806491
0.0817447
0.082911
0.0842325
0.0856659
0.0872301
0.0889043
0.0906876
0.0925644
0.0945262
0.0965594
0.0986525
0.100792
0.102966
0.105162
0.107366
0.109567
0.111753
0.113913
0.116036
0.118113
0.120134
0.122095
0.123984
0.125802
0.127536
0.129195
0.130759
0.132254
0.133637
0.134976
0.136162
0.137377
0.138327
0.139494
0.140084
0.141035
0.141948
0.14214
0.142708
0.142868
0.143019
0.142956
0.142784
0.142452
0.141989
0.141386
0.140653
0.139794
0.138813
0.137717
0.136511
0.135201
0.133793
0.132293
0.130706
0.129038
0.127293
0.125478
0.123596
0.121652
0.11965
0.117593
0.115485
0.113329
0.111127
0.108882
0.106595
0.104268
0.101902
0.0994988
0.0970582
0.0945805
0.0920658
0.0895137
0.0869237
0.0842947
0.0816257
0.078915
0.0761611
0.0733615
0.0705149
0.0676175
0.0646685
0.0616624
0.0585998
0.0554724
0.0522843
0.049021
0.0456947
0.0422787
0.0388024
0.0352131
0.0315776
0.027788
0.0239937
0.0199664
0.0160451
0.0117392
0.00783238
0.00327993
0.196718
0.193217
0.187399
0.182352
0.177017
0.171754
0.166433
0.161102
0.15574
0.15035
0.144926
0.139462
0.133953
0.128389
0.122763
0.117063
0.111281
0.105397
0.0994029
0.0932653
0.0869823
0.0804917
0.0738094
0.0668181
0.0595901
0.0518963
0.0440016
0.0354832
0.0275226
0.0197303
0.0126014
0.00989969
0.00993309
0.0129693
0.021802
0.031801
0.0397184
0.0466566
0.0523232
0.0570767
0.0610392
0.0643859
0.0672255
0.0696551
0.0717843
0.0735855
0.0753295
0.0768939
0.0781256
0.0792474
0.080372
0.0814997
0.0826741
0.0840188
0.0854626
0.0870386
0.0887202
0.0905108
0.0923936
0.0943612
0.0963998
0.0984983
0.100643
0.102822
0.105023
0.107232
0.109437
0.111627
0.11379
0.115915
0.117995
0.120018
0.12198
0.12387
0.125688
0.127422
0.12908
0.130642
0.132135
0.133514
0.134852
0.136032
0.137246
0.138184
0.139349
0.139916
0.140852
0.14176
0.141917
0.142472
0.142614
0.142749
0.142672
0.142487
0.142144
0.141671
0.14106
0.140322
0.139457
0.138474
0.137376
0.13617
0.134861
0.133456
0.131959
0.130377
0.128714
0.126976
0.125167
0.123292
0.121356
0.119361
0.117313
0.115212
0.113064
0.11087
0.108632
0.106352
0.104032
0.101673
0.099275
0.0968396
0.0943668
0.0918564
0.0893081
0.0867213
0.084095
0.0814281
0.078719
0.0759662
0.0731672
0.0703208
0.0674231
0.0644735
0.0614665
0.0584029
0.0552739
0.0520844
0.0488194
0.045492
0.0420744
0.0385978
0.035008
0.0313746
0.0275875
0.0238006
0.0197843
0.0158809
0.0116063
0.00772799
0.00323446
0.196732
0.193259
0.187438
0.182368
0.177036
0.17177
0.166451
0.161121
0.155762
0.150376
0.144956
0.139497
0.133993
0.128436
0.122819
0.117129
0.11136
0.10549
0.099515
0.0934006
0.0871469
0.0806944
0.074062
0.0671399
0.0600065
0.0524561
0.0447631
0.0365767
0.0290118
0.0218252
0.0152174
0.0124578
0.0121215
0.0143337
0.0221982
0.0317472
0.0395074
0.0463636
0.052011
0.0567578
0.0607271
0.0640813
0.0669324
0.0693595
0.0714948
0.0732573
0.0749615
0.0765478
0.0777937
0.0789255
0.080095
0.0812508
0.0824319
0.0837997
0.0852544
0.0868429
0.088533
0.090332
0.0922218
0.0941963
0.0962411
0.0983456
0.100496
0.102681
0.104886
0.107099
0.109308
0.111501
0.113667
0.115795
0.117876
0.1199
0.121861
0.123751
0.125567
0.127299
0.128955
0.130513
0.132004
0.133377
0.134711
0.135883
0.137092
0.138017
0.139176
0.139721
0.140639
0.14154
0.141662
0.1422
0.142324
0.142442
0.142351
0.142151
0.141797
0.141315
0.140696
0.139952
0.139083
0.138097
0.136999
0.135794
0.134488
0.133086
0.131594
0.130018
0.128362
0.126632
0.124832
0.122966
0.121039
0.119054
0.117015
0.114925
0.112786
0.110601
0.108372
0.106101
0.10379
0.101438
0.0990481
0.0966196
0.0941529
0.0916482
0.0891048
0.0865224
0.0838997
0.0812359
0.0785292
0.0757784
0.0729808
0.0701352
0.0672379
0.0642884
0.0612809
0.0582166
0.0550867
0.0518964
0.0486301
0.045302
0.0418835
0.0384074
0.034818
0.0311877
0.0274044
0.0236261
0.0196222
0.0157374
0.011493
0.0076402
0.00319589
0.196744
0.193303
0.187481
0.182388
0.17706
0.171789
0.166473
0.161145
0.15579
0.150408
0.144993
0.13954
0.134044
0.128496
0.122889
0.117212
0.111458
0.105607
0.099655
0.0935692
0.0873515
0.0809454
0.0743728
0.0675323
0.060508
0.0531179
0.0456415
0.0377945
0.0306132
0.0239723
0.0178446
0.0150469
0.0143917
0.015855
0.0227442
0.0317778
0.0393563
0.0461225
0.0517482
0.056487
0.0604607
0.0638192
0.06668
0.069103
0.0712448
0.0729694
0.0746308
0.0762362
0.07749
0.0786232
0.0798317
0.0810123
0.082198
0.083588
0.0850533
0.0866544
0.0883531
0.0901607
0.0920577
0.094039
0.0960901
0.0982003
0.100356
0.102545
0.104755
0.106972
0.109184
0.111379
0.113546
0.115675
0.117755
0.119778
0.121737
0.123624
0.125437
0.127165
0.128816
0.130369
0.131854
0.13322
0.134548
0.135709
0.13691
0.13782
0.13897
0.139495
0.140392
0.141281
0.14137
0.141888
0.141993
0.142091
0.141985
0.141771
0.141405
0.140913
0.140287
0.139537
0.138666
0.137678
0.136581
0.135378
0.134076
0.13268
0.131195
0.129626
0.12798
0.126259
0.12447
0.122615
0.120699
0.118726
0.116699
0.114621
0.112494
0.11032
0.108103
0.105842
0.103541
0.101199
0.0988177
0.0963975
0.0939386
0.0914408
0.0889037
0.0863268
0.0837089
0.0810492
0.0783459
0.0755978
0.0728023
0.0699583
0.067062
0.0641131
0.0611056
0.0580413
0.0549109
0.0517201
0.0484531
0.0451249
0.0417061
0.0382311
0.0346428
0.0310164
0.0272382
0.0234693
0.0194788
0.0156123
0.0113967
0.00756613
0.00316286
0.196753
0.193347
0.187529
0.182413
0.177087
0.171813
0.1665
0.161175
0.155823
0.150446
0.145038
0.139593
0.134105
0.128568
0.122974
0.117312
0.111576
0.105748
0.0998234
0.0937718
0.0875965
0.0812447
0.0747414
0.0679941
0.0610916
0.0538757
0.0466268
0.0391206
0.0323078
0.0261561
0.02047
0.0176543
0.016734
0.0175314
0.0234499
0.031901
0.0392619
0.0459243
0.0515247
0.0562558
0.0602338
0.0635956
0.0664654
0.068884
0.0710341
0.0727227
0.07434
0.0759645
0.0772232
0.0783514
0.079594
0.0807966
0.081985
0.0833958
0.0848707
0.0864836
0.0881903
0.0900058
0.0919093
0.0938967
0.0959531
0.0980681
0.100228
0.102421
0.104633
0.106852
0.109065
0.11126
0.113427
0.115554
0.117631
0.119651
0.121606
0.123487
0.125294
0.127015
0.128659
0.130204
0.13168
0.133036
0.134355
0.135503
0.136694
0.137588
0.138723
0.139231
0.140103
0.140976
0.141035
0.141528
0.141614
0.141692
0.14157
0.141341
0.140964
0.140462
0.139829
0.139075
0.138201
0.137214
0.136118
0.134919
0.133623
0.132234
0.130758
0.1292
0.127564
0.125856
0.124079
0.122238
0.120336
0.118377
0.116364
0.114299
0.112186
0.110026
0.107821
0.105574
0.103284
0.100954
0.0985834
0.0961732
0.0937235
0.0912341
0.0887046
0.0861344
0.0835225
0.0808679
0.078169
0.0754245
0.0726319
0.0697901
0.0668955
0.0639476
0.0609408
0.0578768
0.0547463
0.0515556
0.0482883
0.0449605
0.0415419
0.0380685
0.0344821
0.0308603
0.0270878
0.0233289
0.0193521
0.0155033
0.0113145
0.00750319
0.00313421
0.196762
0.193392
0.187581
0.182442
0.177118
0.171842
0.166531
0.161209
0.155863
0.150491
0.14509
0.139654
0.134177
0.128652
0.123073
0.117429
0.111715
0.105913
0.10002
0.094008
0.0878814
0.0815916
0.0751664
0.0685227
0.0617529
0.0547225
0.047708
0.0405394
0.0340781
0.0283635
0.0230829
0.0202674
0.0191348
0.0193567
0.0243251
0.0321304
0.0392279
0.0457646
0.051332
0.0560552
0.0600391
0.063405
0.0662847
0.0686997
0.0708606
0.072517
0.0740905
0.0757361
0.0769995
0.0781183
0.0793913
0.0806138
0.081803
0.0832328
0.0847162
0.0863393
0.0880529
0.0898749
0.0917837
0.0937756
0.0958359
0.097954
0.100116
0.10231
0.104523
0.106742
0.108953
0.111146
0.113309
0.115431
0.117504
0.119516
0.121464
0.123337
0.125135
0.126846
0.12848
0.130013
0.131479
0.132821
0.134128
0.135261
0.136438
0.137314
0.13843
0.138923
0.139766
0.140619
0.140651
0.141116
0.141183
0.141238
0.141101
0.140857
0.140469
0.139958
0.139319
0.138561
0.137686
0.1367
0.135608
0.134416
0.133127
0.131748
0.130283
0.128737
0.127115
0.125421
0.123659
0.121834
0.119948
0.118005
0.116008
0.11396
0.111863
0.109718
0.107529
0.105296
0.103021
0.100703
0.0983454
0.0959468
0.0935078
0.0910282
0.0885076
0.0859454
0.0833405
0.0806922
0.0779985
0.0752585
0.0724695
0.0696307
0.0667382
0.0637921
0.0607864
0.0577232
0.0545931
0.0514028
0.0481356
0.0448085
0.0413906
0.0379193
0.0343354
0.0307185
0.0269525
0.0232037
0.0192407
0.0154086
0.0112444
0.00744937
0.00310907
0.196772