# vtk DataFile Version 2.0
insac_ib
ASCII
DATASET STRUCTURED_GRID
DIMENSIONS 151 51 1
POINTS 7701 float
0 0 0
0.0703713 0 0
0.140743 0 0
0.211114 0 0
0.281485 0 0
0.351857 0 0
0.422228 0 0
0.492599 0 0
0.562971 0 0
0.633342 0 0
0.703713 0 0
0.774085 0 0
0.844456 0 0
0.914827 0 0
0.985199 0 0
1.05557 0 0
1.12594 0 0
1.19631 0 0
1.26668 0 0
1.33706 0 0
1.40743 0 0
1.4778 0 0
1.54817 0 0
1.61854 0 0
1.68891 0 0
1.75928 0 0
1.82965 0 0
1.90003 0 0
1.9704 0 0
2.04077 -0.00166634 0
2.11114 -0.0125128 0
2.18151 -0.0341173 0
2.25188 -0.0680912 0
2.32225 -0.117717 0
2.39263 -0.176764 0
2.463 -0.235812 0
2.53337 -0.294859 0
2.60374 -0.353906 0
2.67411 -0.412954 0
2.74448 -0.472001 0
2.81485 -0.531049 0
2.88522 -0.590096 0
2.9556 -0.649144 0
3.02597 -0.708191 0
3.09634 -0.767239 0
3.16671 -0.826286 0
3.23708 -0.885317 0
3.30745 -0.934009 0
3.37782 -0.967283 0
3.4482 -0.988302 0
3.51857 -0.998618 0
3.58894 -1 0
3.65931 -1 0
3.72968 -1 0
3.80005 -1 0
3.87042 -1 0
3.94079 -1 0
4.01117 -1 0
4.08154 -1 0
4.15191 -1 0
4.22228 -1 0
4.29265 -1 0
4.36302 -1 0
4.43339 -1 0
4.50377 -1 0
4.57414 -1 0
4.64451 -1 0
4.71488 -1 0
4.78525 -1 0
4.85562 -1 0
4.92599 -1 0
4.99636 -1 0
5.06674 -1 0
5.13711 -1 0
5.20748 -1 0
5.27785 -1 0
5.34822 -1 0
5.41859 -1 0
5.48896 -1 0
5.55934 -1 0
5.62971 -1 0
5.70008 -1 0
5.77045 -1 0
5.84082 -1 0
5.91119 -1 0
5.98156 -1 0
6.05193 -1 0
6.12231 -0.990625 0
6.19268 -0.98125 0
6.26305 -0.971875 0
6.33342 -0.9625 0
6.40379 -0.953125 0
6.47416 -0.94375 0
6.54453 -0.934375 0
6.61491 -0.925 0
6.68528 -0.915625 0
6.75565 -0.90625 0
6.82602 -0.896875 0
6.89639 -0.8875 0
6.96676 -0.878125 0
7.03713 -0.86875 0
7.1075 -0.859375 0
7.17788 -0.85 0
7.24825 -0.840625 0
7.31862 -0.83125 0
7.38899 -0.821875 0
7.45936 -0.8125 0
7.52973 -0.803125 0
7.6001 -0.79375 0
7.67048 -0.784375 0
7.74085 -0.775 0
7.81122 -0.765625 0
7.88159 -0.75625 0
7.95196 -0.746875 0
8.02233 -0.7375 0
8.0927 -0.728125 0
8.16307 -0.71875 0
8.23345 -0.709375 0
8.30382 -0.7 0
8.37419 -0.690625 0
8.44456 -0.68125 0
8.51493 -0.671875 0
8.5853 -0.6625 0
8.65567 -0.653125 0
8.72605 -0.64375 0
8.79642 -0.634375 0
8.86679 -0.625 0
8.93716 -0.615625 0
9.00753 -0.60625 0
9.0779 -0.596875 0
9.14827 -0.5875 0
9.21864 -0.578125 0
9.28902 -0.568749 0
9.35939 -0.559374 0
9.42976 -0.549999 0
9.50013 -0.540624 0
9.5705 -0.531249 0
9.64087 -0.521874 0
9.71124 -0.512499 0
9.78162 -0.503124 0
9.85199 -0.493749 0
9.92236 -0.484374 0
9.99273 -0.474999 0
10.0631 -0.465624 0
10.1335 -0.456249 0
10.2038 -0.446874 0
10.2742 -0.437499 0
10.3446 -0.428124 0
10.415 -0.418749 0
10.4853 -0.409374 0
10.5557 -0.399999 0
0 0.02 0
0.0703713 0.02 0
0.140743 0.02 0
0.211114 0.02 0
0.281485 0.02 0
0.351857 0.02 0
0.422228 0.02 0
0.492599 0.02 0
0.562971 0.02 0
0.633342 0.02 0
0.703713 0.02 0
0.774085 0.02 0
0.844456 0.02 0
0.914827 0.02 0
0.985199 0.02 0
1.05557 0.02 0
1.12594 0.02 0
1.19631 0.02 0
1.26668 0.02 0
1.33706 0.02 0
1.40743 0.02 0
1.4778 0.02 0
1.54817 0.02 0
1.61854 0.02 0
1.68891 0.02 0
1.75928 0.02 0
1.82965 0.02 0
1.90003 0.02 0
1.9704 0.02 0
2.04077 0.018367 0
2.11114 0.00773744 0
2.18151 -0.013435 0
2.25188 -0.0467294 0
2.32225 -0.0953622 0
2.39263 -0.153229 0
2.463 -0.211095 0
2.53337 -0.268962 0
2.60374 -0.326828 0
2.67411 -0.384695 0
2.74448 -0.442561 0
2.81485 -0.500428 0
2.88522 -0.558294 0
2.9556 -0.616161 0
3.02597 -0.674028 0
3.09634 -0.731894 0
3.16671 -0.789761 0
3.23708 -0.847611 0
3.30745 -0.895328 0
3.37782 -0.927937 0
3.4482 -0.948536 0
3.51857 -0.958645 0
3.58894 -0.96 0
3.65931 -0.96 0
3.72968 -0.96 0
3.80005 -0.96 0
3.87042 -0.96 0
3.94079 -0.96 0
4.01117 -0.96 0
4.08154 -0.96 0
4.15191 -0.96 0
4.22228 -0.96 0
4.29265 -0.96 0
4.36302 -0.96 0
4.43339 -0.96 0
4.50377 -0.96 0
4.57414 -0.96 0
4.64451 -0.96 0
4.71488 -0.96 0
4.78525 -0.96 0
4.85562 -0.96 0
4.92599 -0.96 0
4.99636 -0.96 0
5.06674 -0.96 0
5.13711 -0.96 0
5.20748 -0.96 0
5.27785 -0.96 0
5.34822 -0.96 0
5.41859 -0.96 0
5.48896 -0.96 0
5.55934 -0.96 0
5.62971 -0.96 0
5.70008 -0.96 0
5.77045 -0.96 0
5.84082 -0.96 0
5.91119 -0.96 0
5.98156 -0.96 0
6.05193 -0.96 0
6.12231 -0.950812 0
6.19268 -0.941625 0
6.26305 -0.932437 0
6.33342 -0.92325 0
6.40379 -0.914062 0
6.47416 -0.904875 0
6.54453 -0.895687 0
6.61491 -0.8865 0
6.68528 -0.877312 0
6.75565 -0.868125 0
6.82602 -0.858937 0
6.89639 -0.84975 0
6.96676 -0.840562 0
7.03713 -0.831375 0
7.1075 -0.822187 0
7.17788 -0.813 0
7.24825 -0.803812 0
7.31862 -0.794625 0
7.38899 -0.785437 0
7.45936 -0.77625 0
7.52973 -0.767062 0
7.6001 -0.757875 0
7.67048 -0.748687 0
7.74085 -0.7395 0
7.81122 -0.730312 0
7.88159 -0.721125 0
7.95196 -0.711937 0
8.02233 -0.70275 0
8.0927 -0.693562 0
8.16307 -0.684375 0
8.23345 -0.675187 0
8.30382 -0.666 0
8.37419 -0.656812 0
8.44456 -0.647625 0
8.51493 -0.638437 0
8.5853 -0.62925 0
8.65567 -0.620062 0
8.72605 -0.610875 0
8.79642 -0.601687 0
8.86679 -0.5925 0
8.93716 -0.583312 0
9.00753 -0.574125 0
9.0779 -0.564937 0
9.14827 -0.55575 0
9.21864 -0.546562 0
9.28902 -0.537374 0
9.35939 -0.528187 0
9.42976 -0.518999 0
9.50013 -0.509812 0
9.5705 -0.500624 0
9.64087 -0.491437 0
9.71124 -0.482249 0
9.78162 -0.473062 0
9.85199 -0.463874 0
9.92236 -0.454687 0
9.99273 -0.445499 0
10.0631 -0.436312 0
10.1335 -0.427124 0
10.2038 -0.417937 0
10.2742 -0.408749 0
10.3446 -0.399562 0
10.415 -0.390374 0
10.4853 -0.381187 0
10.5557 -0.371999 0
0 0.04 0
0.0703713 0.04 0
0.140743 0.04 0
0.211114 0.04 0
0.281485 0.04 0
0.351857 0.04 0
0.422228 0.04 0
0.492599 0.04 0
0.562971 0.04 0
0.633342 0.04 0
0.703713 0.04 0
0.774085 0.04 0
0.844456 0.04 0
0.914827 0.04 0
0.985199 0.04 0
1.05557 0.04 0
1.12594 0.04 0
1.19631 0.04 0
1.26668 0.04 0
1.33706 0.04 0
1.40743 0.04 0
1.4778 0.04 0
1.54817 0.04 0
1.61854 0.04 0
1.68891 0.04 0
1.75928 0.04 0
1.82965 0.04 0
1.90003 0.04 0
1.9704 0.04 0
2.04077 0.0384003 0
2.11114 0.0279877 0
2.18151 0.00724739 0
2.25188 -0.0253676 0
2.32225 -0.0730079 0
2.39263 -0.129693 0
2.463 -0.186379 0
2.53337 -0.243065 0
2.60374 -0.29975 0
2.67411 -0.356436 0
2.74448 -0.413121 0
2.81485 -0.469807 0
2.88522 -0.526493 0
2.9556 -0.583178 0
3.02597 -0.639864 0
3.09634 -0.696549 0
3.16671 -0.753235 0
3.23708 -0.809904 0
3.30745 -0.856648 0
3.37782 -0.888592 0
3.4482 -0.90877 0
3.51857 -0.918673 0
3.58894 -0.92 0
3.65931 -0.92 0
3.72968 -0.92 0
3.80005 -0.92 0
3.87042 -0.92 0
3.94079 -0.92 0
4.01117 -0.92 0
4.08154 -0.92 0
4.15191 -0.92 0
4.22228 -0.92 0
4.29265 -0.92 0
4.36302 -0.92 0
4.43339 -0.92 0
4.50377 -0.92 0
4.57414 -0.92 0
4.64451 -0.92 0
4.71488 -0.92 0
4.78525 -0.92 0
4.85562 -0.92 0
4.92599 -0.92 0
4.99636 -0.92 0
5.06674 -0.92 0
5.13711 -0.92 0
5.20748 -0.92 0
5.27785 -0.92 0
5.34822 -0.92 0
5.41859 -0.92 0
5.48896 -0.92 0
5.55934 -0.92 0
5.62971 -0.92 0
5.70008 -0.92 0
5.77045 -0.92 0
5.84082 -0.92 0
5.91119 -0.92 0
5.98156 -0.92 0
6.05193 -0.92 0
6.12231 -0.911 0
6.19268 -0.902 0
6.26305 -0.893 0
6.33342 -0.884 0
6.40379 -0.875 0
6.47416 -0.866 0
6.54453 -0.857 0
6.61491 -0.848 0
6.68528 -0.839 0
6.75565 -0.83 0
6.82602 -0.821 0
6.89639 -0.812 0
6.96676 -0.803 0
7.03713 -0.794 0
7.1075 -0.785 0
7.17788 -0.776 0
7.24825 -0.767 0
7.31862 -0.758 0
7.38899 -0.749 0
7.45936 -0.74 0
7.52973 -0.731 0
7.6001 -0.722 0
7.67048 -0.713 0
7.74085 -0.704 0
7.81122 -0.695 0
7.88159 -0.686 0
7.95196 -0.677 0
8.02233 -0.668 0
8.0927 -0.659 0
8.16307 -0.65 0
8.23345 -0.641 0
8.30382 -0.632 0
8.37419 -0.623 0
8.44456 -0.614 0
8.51493 -0.605 0
8.5853 -0.596 0
8.65567 -0.587 0
8.72605 -0.578 0
8.79642 -0.569 0
8.86679 -0.56 0
8.93716 -0.551 0
9.00753 -0.542 0
9.0779 -0.533 0
9.14827 -0.524 0
9.21864 -0.515 0
9.28902 -0.506 0
9.35939 -0.496999 0
9.42976 -0.487999 0
9.50013 -0.478999 0
9.5705 -0.469999 0
9.64087 -0.460999 0
9.71124 -0.451999 0
9.78162 -0.442999 0
9.85199 -0.433999 0
9.92236 -0.424999 0
9.99273 -0.415999 0
10.0631 -0.406999 0
10.1335 -0.397999 0
10.2038 -0.388999 0
10.2742 -0.379999 0
10.3446 -0.370999 0
10.415 -0.361999 0
10.4853 -0.352999 0
10.5557 -0.343999 0
0 0.06 0
0.0703713 0.06 0
0.140743 0.06 0
0.211114 0.06 0
0.281485 0.06 0
0.351857 0.06 0
0.422228 0.06 0
0.492599 0.06 0
0.562971 0.06 0
0.633342 0.06 0
0.703713 0.06 0
0.774085 0.06 0
0.844456 0.06 0
0.914827 0.06 0
0.985199 0.06 0
1.05557 0.06 0
1.12594 0.06 0
1.19631 0.06 0
1.26668 0.06 0
1.33706 0.06 0
1.40743 0.06 0
1.4778 0.06 0
1.54817 0.06 0
1.61854 0.06 0
1.68891 0.06 0
1.75928 0.06 0
1.82965 0.06 0
1.90003 0.06 0
1.9704 0.06 0
2.04077 0.0584336 0
2.11114 0.048238 0
2.18151 0.0279297 0
2.25188 -0.00400573 0
2.32225 -0.0506536 0
2.39263 -0.106158 0
2.463 -0.161663 0
2.53337 -0.217167 0
2.60374 -0.272672 0
2.67411 -0.328177 0
2.74448 -0.383681 0
2.81485 -0.439186 0
2.88522 -0.494691 0
2.9556 -0.550195 0
3.02597 -0.6057 0
3.09634 -0.661204 0
3.16671 -0.716709 0
3.23708 -0.772198 0
3.30745 -0.817968 0
3.37782 -0.849246 0
3.4482 -0.869004 0
3.51857 -0.878701 0
3.58894 -0.88 0
3.65931 -0.88 0
3.72968 -0.88 0
3.80005 -0.88 0
3.87042 -0.88 0
3.94079 -0.88 0
4.01117 -0.88 0
4.08154 -0.88 0
4.15191 -0.88 0
4.22228 -0.88 0
4.29265 -0.88 0
4.36302 -0.88 0
4.43339 -0.88 0
4.50377 -0.88 0
4.57414 -0.88 0
4.64451 -0.88 0
4.71488 -0.88 0
4.78525 -0.88 0
4.85562 -0.88 0
4.92599 -0.88 0
4.99636 -0.88 0
5.06674 -0.88 0
5.13711 -0.88 0
5.20748 -0.88 0
5.27785 -0.88 0
5.34822 -0.88 0
5.41859 -0.88 0
5.48896 -0.88 0
5.55934 -0.88 0
5.62971 -0.88 0
5.70008 -0.88 0
5.77045 -0.88 0
5.84082 -0.88 0
5.91119 -0.88 0
5.98156 -0.88 0
6.05193 -0.88 0
6.12231 -0.871187 0
6.19268 -0.862375 0
6.26305 -0.853562 0
6.33342 -0.84475 0
6.40379 -0.835937 0
6.47416 -0.827125 0
6.54453 -0.818312 0
6.61491 -0.8095 0
6.68528 -0.800687 0
6.75565 -0.791875 0
6.82602 -0.783062 0
6.89639 -0.77425 0
6.96676 -0.765437 0
7.03713 -0.756625 0
7.1075 -0.747812 0
7.17788 -0.739 0
7.24825 -0.730187 0
7.31862 -0.721375 0
7.38899 -0.712562 0
7.45936 -0.70375 0
7.52973 -0.694937 0
7.6001 -0.686125 0
7.67048 -0.677312 0
7.74085 -0.6685 0
7.81122 -0.659687 0
7.88159 -0.650875 0
7.95196 -0.642062 0
8.02233 -0.63325 0
8.0927 -0.624437 0
8.16307 -0.615625 0
8.23345 -0.606812 0
8.30382 -0.598 0
8.37419 -0.589187 0
[...]
POINT_DATA 7701
SCALARS pressure float 1
LOOKUP_TABLE default
0.0535971
0.0522845
0.0500434
0.0479846
0.0457708
0.0435531
0.0412879
0.0389926
0.036664
0.0342994
0.0319002
0.0294584
0.0269753
0.0244394
0.0218515
0.0191957
0.0164721
0.013659
0.0107553
0.00773039
0.00458229
0.00126482
-0.00222412
-0.00596108
-0.00994471
-0.0143232
-0.0190854
-0.024604
-0.030893
-0.0397929
-0.0467313
-0.045345
-0.0383845
-0.0282663
-0.0188042
-0.0131854
-0.0095771
-0.00680513
-0.00483871
-0.00330501
-0.00214255
-0.00119389
-0.000293343
0.000770902
0.00224095
0.00447543
0.00716191
0.00945249
0.0113866
0.0135079
0.0156579
0.0183694
0.0211529
0.0228856
0.0232722
0.0224345
0.0208814
0.0190387
0.0172637
0.015694
0.0143968
0.0133367
0.0124803
0.011736
0.0110991
0.0105139
0.00997349
0.00945416
0.00894922
0.00845064
0.00795504
0.0074609
0.00696718
0.00647512
0.00598387
0.0054964
0.00501102
0.00453306
0.00406071
0.00360249
0.00316193
0.00274386
0.00236789
0.00199717
0.00170415
0.00135479
0.00123461
0.00110187
0.000753704
0.000508444
0.000242298
2.19642e-05
-0.000178771
-0.000348118
-0.000491018
-0.000606383
-0.000696928
-0.000764014
-0.000811327
-0.000840759
-0.00085587
-0.000858045
-0.00084955
-0.000830751
-0.000802358
-0.000763778
-0.000714559
-0.000653538
-0.000579683
-0.000491692
-0.00038844
-0.00026881
-0.000131919
2.29419e-05
0.000196185
0.000387931
0.000597941
0.000825597
0.00106986
0.00132926
0.00160187
0.00188533
0.00217684
0.0024732
0.00277086
0.00306599
0.00335454
0.00363236
0.00389521
0.00413906
0.00435982
0.004554
0.00471799
0.00484925
0.00494472
0.00500334
0.00502225
0.00500261
0.00494068
0.00484134
0.00469735
0.0045208
0.00429499
0.00404752
0.00373867
0.00343135
0.00303111
0.00268395
0.00215978
0.00180102
0.00119463
0.0536154
0.052286
0.0500331
0.0479779
0.0457634
0.0435461
0.0412804
0.0389847
0.0366555
0.0342902
0.03189
0.029447
0.0269625
0.024425
0.0218351
0.019177
0.0164507
0.0136343
0.010727
0.00769746
0.00454404
0.00121978
-0.00227711
-0.00602489
-0.0100215
-0.0144204
-0.0192077
-0.0247748
-0.0310064
-0.0393937
-0.0458311
-0.0445817
-0.0382286
-0.0287233
-0.0194237
-0.0136766
-0.00996932
-0.00712576
-0.00509665
-0.00351246
-0.00230286
-0.00131912
-0.000406927
0.000627602
0.00199387
0.00405818
0.00665082
0.00900173
0.0110284
0.0132217
0.015424
0.0180658
0.0207023
0.0223664
0.0227828
0.0220422
0.0206151
0.0188933
0.0172158
0.0157128
0.0144543
0.0134101
0.0125562
0.0118075
0.0111641
0.010571
0.0100232
0.00949705
0.00898638
0.00848313
0.00798387
0.00748693
0.00699107
0.00649746
0.00600511
0.00551708
0.00503171
0.00455457
0.00408387
0.00362812
0.00319041
0.00277466
0.00240111
0.00203252
0.00174354
0.00139826
0.00124804
0.00108554
0.000746524
0.000511382
0.000251284
3.68862e-05
-0.000159751
-0.000325465
-0.000465646
-0.000579047
-0.000668484
-0.000735234
-0.000782883
-0.000813114
-0.000829316
-0.000832664
-0.000825303
-0.000807482
-0.000779884
-0.000741897
-0.000693107
-0.000632391
-0.00055878
-0.000471025
-0.000368062
-0.000248821
-0.000112464
4.16831e-05
0.000214
0.000404586
0.000613183
0.000839162
0.00108148
0.00133867
0.00160881
0.00188957
0.00217814
0.00247138
0.00276576
0.0030575
0.00334259
0.00361692
0.0038763
0.00411675
0.00433423
0.00452529
0.00468634
0.00481489
0.00490788
0.00496431
0.00498126
0.00495996
0.00489659
0.00479609
0.00465108
0.00447376
0.00424719
0.00399919
0.00368951
0.0033816
0.00297968
0.00263068
0.00210231
0.00173862
0.000924199
0.0536442
0.0522936
0.0500226
0.0479694
0.0457541
0.0435368
0.0412706
0.0389742
0.0366441
0.0342777
0.0318762
0.0294316
0.0269453
0.0244055
0.0218131
0.0191519
0.0164221
0.0136014
0.0106891
0.0076536
0.00449334
0.00116032
-0.0023465
-0.00610778
-0.0101196
-0.0145416
-0.0193519
-0.024954
-0.0310632
-0.0386908
-0.0444222
-0.0433682
-0.0378743
-0.0293228
-0.0203313
-0.0144178
-0.0105747
-0.00762493
-0.00550033
-0.00383968
-0.00255874
-0.00152154
-0.0005882
0.000410103
0.00163773
0.00343539
0.00582614
0.00820247
0.0103264
0.0126183
0.0149354
0.0175693
0.0201029
0.0217312
0.0221848
0.0215376
0.0202377
0.0186501
0.0170935
0.0156838
0.0144876
0.0134767
0.0126348
0.0118827
0.011233
0.0106309
0.0100744
0.00954039
0.00902306
0.00851449
0.00801107
0.00751103
0.00701289
0.00651775
0.0060244
0.0055361
0.00505105
0.00457541
0.00410704
0.00365514
0.00322158
0.00281023
0.00244048
0.0020755
0.00178882
0.00145
0.00126089
0.00106089
0.000736578
0.000511705
0.000260132
5.3223e-05
-0.000137409
-0.000297951
-0.0004339
-0.000544113
-0.000631483
-0.000697226
-0.000744861
-0.000775766
-0.000793165
-0.000797903
-0.000791994
-0.000775486
-0.00074903
-0.000711955
-0.000663896
-0.00060376
-0.000530657
-0.000443401
-0.000341002
-0.000222448
-8.69608e-05
6.6089e-05
0.000237043
0.00042597
0.000632591
0.000856263
0.00109594
0.00135014
0.00161698
0.00189411
0.00217879
0.00246788
0.0027579
0.00304513
0.00332558
0.00359524
0.00384995
0.00408579
0.00429878
0.00448552
0.00464247
0.00476719
0.00485664
0.00490985
0.00492391
0.00490007
0.00483444
0.00473206
0.00458535
0.0044067
0.00417876
0.00392979
0.00361865
0.00330977
0.00290534
0.0025542
0.00202129
0.0016557
0.000884495
0.0536657
0.0523075
0.0500234
0.0479658
0.0457507
0.0435324
0.0412659
0.038969
0.0366384
0.0342714
0.0318693
0.0294238
0.0269367
0.0243958
0.0218023
0.0191396
0.0164083
0.0135857
0.0106714
0.00763333
0.00447051
0.00113414
-0.00237572
-0.00614093
-0.0101549
-0.014578
-0.0193754
-0.0249303
-0.0308607
-0.0379082
-0.043195
-0.0423306
-0.0374337
-0.0296241
-0.0209407
-0.014947
-0.0110343
-0.00801742
-0.00582438
-0.00410808
-0.00277429
-0.00169914
-0.000751656
0.000215997
0.00134731
0.00292426
0.00507143
0.00735121
0.00945528
0.0117882
0.0142363
0.0169974
0.0196151
0.0213026
0.0217727
0.0211348
0.0198659
0.0183398
0.0168637
0.0155354
0.0144111
0.0134567
0.0126541
0.0119199
0.0112826
0.0106845
0.0101282
0.00959179
0.00907071
0.00855814
0.00805072
0.00754708
0.00704571
0.00654778
0.00605186
0.0055614
0.00507414
0.00459692
0.0041265
0.00367386
0.00323859
0.00282798
0.00245865
0.00209548
0.00180392
0.00146976
0.0012589
0.00103915
0.000726788
0.000503249
0.000258711
5.61597e-05
-0.000129228
-0.000285683
-0.000417588
-0.000524563
-0.000609387
-0.000673355
-0.00072008
-0.000750676
-0.00076838
-0.000773723
-0.00076868
-0.000753081
-0.000727555
-0.000691334
-0.000644069
-0.000584654
-0.000512236
-0.000425652
-0.000323954
-0.000206161
-7.15257e-05
8.05556e-05
0.000250403
0.00043807
0.000643265
0.000865338
0.00110324
0.00135549
0.0016202
0.00189504
0.00217727
0.00246377
0.00275107
0.00303547
0.00331301
0.00357968
0.00383138
0.00406419
0.00427418
0.00445797
0.00461205
0.00473401
0.00482083
0.00487158
0.00488333
0.00485739
0.00478982
0.00468574
0.00453743
0.00435746
0.00412815
0.00387819
0.00356569
0.00325602
0.00284992
0.00249823
0.00196516
0.00160583
0.000863587
0.0536857
0.0523255
0.0500297
0.0479643
0.0457499
0.0435301
0.0412637
0.0389663
0.0366356
0.0342682
0.0318658
0.0294201
0.0269327
0.0243913
0.0217975
0.0191343
0.0164027
0.0135795
0.010665
0.00762643
0.0044637
0.00112739
-0.00238102
-0.00614379
-0.0101507
-0.0145596
-0.0193188
-0.0247791
-0.0304625
-0.036881
-0.0417449
-0.0411489
-0.0368913
-0.0298412
-0.0214924
-0.0154341
-0.0114724
-0.00840495
-0.00615115
-0.00438324
-0.00299753
-0.00188587
-0.000925787
2.52903e-06
0.00102942
0.0023723
0.00422708
0.00633144
0.00832954
0.0106637
0.0132554
0.0161878
0.0189337
0.0206907
0.0211681
0.0205333
0.0193029
0.0178615
0.0164999
0.0152904
0.0142704
0.0133986
0.0126449
0.0119224
0.0112964
0.0107014
0.0101458
0.00960848
0.00908514
0.00857022
0.00806039
0.00755473
0.00705168
0.00655252
0.00605546
0.00556419
0.00507582
0.00459812
0.00412651
0.00367489
0.00324006
0.00283453
0.00246839
0.00210829
0.00180933
0.00147969
0.00124774
0.00100913
0.000709869
0.0004864
0.000250138
5.16196e-05
-0.000127658
-0.00027967
-0.000406641
-0.000509542
-0.00059092
-0.000652245
-0.000697358
-0.000727047
-0.000744667
-0.000750344
-0.000746055
-0.000731341
-0.000706815
-0.000671566
-0.000625253
-0.00056673
-0.000495177
-0.000409438
-0.000308603
-0.000191711
-5.8046e-05
9.29779e-05
0.00026166
0.000448043
0.000651823
0.000872344
0.00110855
0.00135896
0.00162169
0.0018944
0.00217435
0.00245845
0.00274322
0.00302497
0.00329976
0.00356359
0.00381238
0.00404224
0.00424927
0.0044301
0.00458126
0.00470038
0.00478445
0.00483257
0.00484183
0.0048136
0.00474388
0.00463789
0.00448777
0.0043063
0.00407547
0.00382439
0.00351053
0.00320012
0.00279279
0.00244125
0.0019098
0.00155818
0.000843763
0.0537031
0.0523483
0.0500434
0.0479667
0.0457533
0.0435317
0.0412654
0.0389678
0.0366374
0.0342702
0.0318683
0.029423
0.0269363
0.0243956
0.0218029
0.0191407
0.0164107
0.0135891
0.0106771
0.00764123
0.00448268
0.00115162
-0.0023486
-0.00609972
-0.0100866
-0.0144616
-0.0191533
-0.0244731
-0.0298763
-0.0357012
-0.040198
-0.0398921
-0.0362392
-0.0299129
-0.0219213
-0.0158243
-0.011834
-0.00873868
-0.00644037
-0.00463271
-0.00320259
-0.00205926
-0.00108494
-0.000191402
0.000747408
0.00187423
0.00340811
0.00525816
0.00704861
0.00932824
0.0120661
0.0152109
0.0181265
0.019951
0.0204114
0.0197608
0.0185641
0.0172186
0.0159871
0.0149132
0.014025
0.0132726
0.0126116
0.0119355
0.0113469
0.0107711
0.010224
0.00968858
0.00916234
0.00864283
0.00812729
0.00761586
0.00710722
0.00660278
0.00610032
0.00560364
0.00510881
0.0046245
0.00414364
0.00368424
0.0032383
0.00282965
0.00246216
0.00210223
0.00179279
0.00146899
0.001222
0.000970162
0.000684879
0.000459178
0.00023106
3.49626e-05
-0.000138251
-0.000286249
-0.000407864
-0.000506126
-0.000583231
-0.000640948
-0.000683553
-0.000711451
-0.000728289
-0.00073371
-0.000729773
-0.000715665
-0.000691998
-0.000657668
-0.000612333
-0.000554768
-0.000484166
-0.000399354
-0.000299441
-0.000183471
-5.07436e-05
9.93173e-05
0.000267001
0.000452342
0.000655029
0.0008744
0.00110939
0.00135852
0.00161988
0.00189115
0.00216956
0.00245201
0.00273504
0.00301492
0.00328772
0.00354945
0.00379603
0.00402359
0.00422822
0.00440659
0.00455525
0.00467187
0.00475344
0.00479913
0.00480602
0.00477555
0.00470368
0.00459575
0.00444378
0.00426076
0.0040284
0.0037762
0.00346115
0.00315021
0.00274245
0.00239201
0.00186421
0.00152143
0.000829004
0.0537197
0.0523759
0.0500644
0.0479733
0.0457608
0.043537
0.0412711
0.0389736
0.0366439
0.0342775
0.0318769
0.0294328
0.0269478
0.024409
0.0218187
0.0191592
0.0164327
0.0136151
0.0107084
0.00767875
0.00452867
0.00120822
-0.00227683
-0.00600696
-0.00996108
-0.0142837
-0.0188827
-0.0240279
-0.0291341
-0.0343869
-0.038526
-0.0385154
-0.0354743
-0.0298768
-0.0222739
-0.0161555
-0.0121414
-0.00903307
-0.00670259
-0.00486514
-0.00339617
-0.002225
-0.0012354
-0.000376473
0.000480893
0.00140803
0.00261487
0.00416736
0.00566399
0.00783537
0.010715
0.0140755
0.0171457
0.0189964
0.0194101
0.018747
0.0176136
0.0164092
0.0153645
0.0144793
0.013754
0.0131405
0.0125416
0.0118512
0.0112762
0.010709
0.0101692
0.0096395
0.00911596
0.0085984
0.0080839
0.00757353
0.00706612
0.00656313
0.00606184
0.00556617
0.00507115
0.00458651
0.00410312
0.00364453
0.00319987
0.00280507
0.00244726
0.0020908
0.00176764
0.00144758
0.00118588
0.000921482
0.00065057
0.000421633
0.000201921
7.19981e-06
-0.000159602
-0.000303725
-0.00041924
-0.000512022
-0.00058385
-0.000636874
-0.000676073
-0.000701339
-0.000716799
-0.000721481
-0.0007176
-0.000703897
-0.000681001
-0.000647559
-0.000603222
-0.000546654
-0.000477055
-0.000393213
-0.000294249
-0.000179201
-4.73803e-05
0.000101787
0.000268581
0.000453031
0.000654819
0.000873273
0.00110732
0.00135547
0.0016158
0.00188596
0.00216319
0.00244435
0.00272596
0.0030043
0.00327541
0.0035353
0.00377989
0.00400531
0.00420768
0.00438368
0.00452988
0.00464399
0.00472303
0.00476622
0.00477065
0.00473784
0.00466372
0.00455374
0.00439986
0.0042152
0.00398134
0.00372805
0.00341206
0.00310083
0.00269338
0.00234465
0.00182183
0.00148755
0.000814729
0.0537359
0.0524085
0.0500935
0.0479854
0.0457732
0.043547
0.0412816
0.0389845
0.0366561
0.0342911
0.0318925
0.0294507
0.0269686
0.024433
0.0218468
0.0191919
0.0164712
0.0136603
0.0107622
0.00774271
0.00460597
0.0013022
-0.00215993
-0.00585898
-0.00976694
-0.0140188
-0.0185031
-0.0234466
-0.0282541
-0.0329805
-0.0367758
-0.0370319
-0.034584
-0.0297195
-0.0225479
-0.0164339
-0.0123934
-0.00928123
-0.00692976
-0.00507333
-0.00357263
-0.00237823
-0.00137024
-0.000540081
0.000250618
0.00100552
0.00189913
0.00314064
0.00427076
0.00628529
0.00930488
0.0128663
0.0160496
0.0178659
0.0181976
0.0175297
0.0164927
0.0154701
0.0146185
0.0139042
0.0133608
0.012937
0.0125138
0.0119151
0.0114053
0.0108754
0.010348
0.00982052
0.00929029
0.00876337
0.00823754
0.00771556
0.00719685
0.00668292
0.00617027
0.00566278
0.00515378
0.00465343
0.00414739
0.00366543
0.00318493
0.00277389
0.0024144
0.00205528
0.00171792
0.00140725
0.00113615
0.000861857
0.000606385
0.000373481
0.000162057
-3.29442e-05
-0.000193433
-0.000334226
-0.00044309
-0.000529603
-0.00059516
-0.000642313
-0.000677134
-0.000698804
-0.000712186
-0.000715523
-0.000711293
-0.000697686
-0.000675373
-0.000642692
-0.000599285
-0.00054367
-0.000475041
-0.000392131
-0.000294061
-0.000179853
-4.88232e-05
9.96068e-05
0.000265711
0.000449514
0.000650688
0.000868553
0.00110202
0.00134957
0.00160928
0.00187876
0.00215523
0.00243552
0.00271611
0.00299328
0.00326304
0.0035214
0.00376426
0.00398776
0.00418802
0.00436176
0.00450557
0.00461719
0.00469368
0.00473433
0.00473624
0.00470101
0.00462458
0.0045125
0.00435666
0.00417036
0.00393509
0.00368079
0.00336419
0.00305293
0.0026466
0.00230007
0.00178334
0.00145676
0.00080086
0.0537525
0.0524458
0.0501308
0.0480038
0.0457909
0.0435621
0.0412973
0.0390011
0.0366744
0.0343116
0.0319159
0.0294774
0.0269995
0.0244686
0.0218883
0.0192401
0.0165277
0.0137264
0.0108404
0.00783529
0.00471708
0.00143633
-0.00199489
-0.00565264
-0.00950159
-0.0136659
-0.0180176
-0.0227401
-0.0272539
-0.0315029
-0.034968
-0.0354465
-0.0335602
-0.0294358
-0.0227493
-0.0166764
-0.0126031
-0.00948875
-0.00712366
-0.00525798
-0.00373269
-0.00252131
-0.00149338
-0.000687617
5.07802e-05
0.000665329
0.00127854
0.00223255
0.00294247
0.00476384
0.00792663
0.0116452
0.0148646
0.0165696
0.0167886
0.0161446
0.0152519
0.0144628
0.0139103
0.0134682
0.0131164
0.01287
0.0124118
0.0116301
0.0111049
0.0105817
0.0100689
0.00955895
0.00904289
0.00852977
0.00801651
0.0075069
0.00700078
0.00649954
0.0059991
0.00550332
0.00500452
0.00451344
0.00401381
0.00354264
0.00308316
0.0027222
0.00239575
0.00204122
0.00167684
0.00136274
0.00107866
0.000794213
0.000554245
0.000316299
0.000112382
-8.49212e-05
-0.000239198
-0.000377448
-0.000479054
-0.000558429
-0.000616681
-0.000656691
-0.000686157
-0.000703237
-0.000713861
-0.00071525
-0.00071028
-0.000696452
-0.00067452
-0.000642443
-0.000599856
-0.000545099
-0.000477356
-0.000395283
-0.000298002
-0.000184507
-5.41141e-05
9.37584e-05
0.000259379
0.000442767
0.000643582
0.000861128
0.0010943
0.00134155
0.00160093
0.00187001
0.00214597
0.00242562
0.00270542
0.00298159
0.00325013
0.00350704
0.00374821
0.00396979
0.0041679
0.00433931
0.00448062
0.00458964
0.00466345
0.00470141
0.00470067
0.0046629
0.00458406
0.00446979
0.004312
0.00412406
0.00388751
0.00363232
0.00331549
0.00300449
0.00260004
0.00225603
0.00174623
0.00142622
0.000785827
0.0537697
0.0524875
0.0501761
0.0480293
0.0458147
0.0435831
0.0413189
0.0390238
0.0366995
0.0343396
0.0319478
0.0295138
0.0270415
0.0245169
0.0219444
0.0193051
0.0166037
0.0138151
0.0109449
0.00795868
0.00486442
0.00161328
-0.0017789
-0.00538519
-0.00916298
-0.0132243
-0.0174296
-0.0219181
-0.0261474
-0.0299706
-0.0331257
-0.0337745
-0.0323968
-0.0290087
-0.0228686
-0.0168889
-0.0127797
-0.00965973
-0.00728376
-0.00541731
-0.00387464
-0.00265379
-0.00160497
-0.000819304
-0.000117184
0.000391431
0.000769226
0.00149339
0.00174697
0.0033605
0.00667976
0.0104833
0.0136397
0.015151
0.0152352
0.0146531
0.0139709
0.0134727
0.0130894
0.0127146
0.0125447
0.0125668
0.0125462
0.012039
0.011597
0.0111309
0.0106147
0.0100908
0.00954839
0.00900707
0.00846363
0.00792374
0.00738862
0.00685933
0.00633038
0.00580555
0.00527509
0.00474881
0.00419864
0.0036659
0.0030862
0.00265022
0.00232349
0.00196371
0.00158679
0.00129645
0.00101132
0.000717705
0.000493925
0.000250821
5.41157e-05
-0.000148222
-0.000296861
-0.000433734
-0.000527674
-0.000599019
-0.000648991
-0.000680505
-0.000703652
-0.000715093
-0.000722259
-0.00072105
-0.000714905
-0.000700486
-0.000678676
-0.000646981
-0.000605042
-0.000550982
-0.00048397
-0.000402577
-0.000305915
-0.000192944
-6.29828e-05
8.45584e-05
0.000249941
0.000433176
0.000633908
0.00085142
0.00108457
0.0013318
0.0015911
0.00186002
0.00213569
0.00241488
0.002694
0.00296926
0.00323664
0.0034921
0.00373154
0.00395111
0.00414696
0.00431589
0.00445454
0.00456077
0.00463173
0.00466683
0.00466328
0.00462283
0.0045415
0.00442497
0.00426525
0.00407571
0.00383806
0.00358214
0.00326551
0.00295506
0.00255322
0.00221192
0.00170975
0.00139504
0.000769129
0.053788
0.0525328
0.0502289
0.0480624
0.0458449
0.0436103
0.0413467
0.0390532
0.0367319
0.0343757
0.0319888
0.0295604
0.0270951
0.0245786
0.0220159
0.0193878
0.0167002
0.0139276
0.0110772
0.00811433
0.00504956
0.00183468
-0.00151049
-0.00505549
-0.00875107
-0.0126959
-0.0167443
-0.0209921
-0.0249474
-0.0283929
-0.0312613
-0.0320313
-0.0310943
-0.0284206
-0.0228896
-0.0170706
-0.0129309
-0.00980052
-0.00741226
-0.00555065
-0.00399731
-0.00277636
-0.00170735
-0.000940361
-0.000259745
0.000175471
0.000368299
0.000950947
0.000726127
0.00214694
0.0056479
0.00942888
0.0124089
0.0136513
0.0135997
0.0131526
0.0126971
0.0124761
0.0126315
0.0127168
0.012691
0.0129398
0.0123606
0.011003
0.0105145
0.0100723
0.00960209
0.0091311
0.00863954
0.00814917
0.00765586
0.0071654
0.00667989
0.0062001
0.00572033
0.00524431
0.00476262
0.00428423
0.00378286
0.00330318
0.00285247
0.00260766
0.00237424
0.00201581
0.0015629
0.00123428
0.000935403
0.000636522
0.000430415
0.000180783
-1.12945e-05
-0.000222112
-0.000365241
-0.000502646
-0.00058843
-0.000650846
-0.000691621
-0.000713209
-0.000729128
-0.000733859
-0.000736902
-0.000732437
-0.000724688
-0.000709288
-0.000687318
-0.000655748
-0.00061424
-0.000560667
-0.000494187
-0.000413266
-0.000317008
-0.000204336
-7.45702e-05
7.28866e-05
0.000238284
0.000421622
0.000622522
0.000840241
0.0010736
0.00132101
0.0015804
0.00184929
0.00212476
0.00240354
0.002682
0.0029563
0.00322241
0.00347628
0.0037138
0.00393114
0.00412449
0.00429068
0.0044264
0.00452959
0.00459744
0.00462945
0.00462291
0.00457963
0.0044957
0.00437688
0.00421526
0.00402419
0.00378565
0.00352921
0.00321322
0.00290361
0.0025051
0.00216657
0.00167264
0.00136195
0.000750121
0.0538076
0.0525815
0.0502887
0.0481031
0.0458818
0.0436443
0.0413813
0.0390896
0.0367719
0.0344203
0.0320393
0.0296178
0.027161
0.0246543
0.0221034
0.019489
0.0168181
0.0140648
0.011238
0.00830323
0.00527345
0.00210142
-0.00118907
-0.00466351
-0.00826701
-0.0120841
-0.0159679
-0.0199732
-0.0236658
-0.0267767
-0.0293828
-0.0302326
-0.0296598
-0.0276554
-0.0227878
-0.0172092
-0.0130583
-0.00991483
-0.00751051
-0.00565674
-0.0040973
-0.00288676
-0.00179937
-0.001053
-0.00038037
8.42892e-06
6.43166e-05
0.000617084
-9.98107e-05
0.00118252
0.00490399
0.00851313
0.0111941
0.0121103
0.0119228
0.0116479
0.0116073
0.0118795
0.011799
0.011355
0.0114301
0.0120042
0.0130832
0.0129566
0.0123788
0.011984
0.0114293
0.0108741
0.0102859
0.00970175
0.00911388
0.00852924
0.00795399
0.00738747
0.00682026
0.00625707
0.00568769
0.00512
0.00450507
0.00387421
0.0029726
0.00237753
0.00215913
0.0018138
0.00139081
0.00115426
0.00087042
0.000551374
0.000359971
0.000105935
-8.01136e-05
-0.000304288
-0.000443544
-0.000583397
-0.000660951
-0.000713303
-0.000744138
-0.000754268
-0.000762153
-0.000759085
-0.000757383
-0.000748998
-0.000739216
-0.000722421
-0.00069998
-0.000668242
-0.000626906
-0.000573568
-0.000507374
-0.000426676
-0.000330569
-0.000217939
-8.8108e-05
5.95251e-05
0.000225195
0.000408883
0.000610182
0.000828316
0.00106207
0.0013098
0.00156939
0.00183831
0.00211359
0.00239191
0.00266959
0.00294278
0.00320741
0.00345944
0.00369475
0.00390956
0.00410007
0.00426318
0.00439564
0.00449546
0.00455991
0.00458858
0.00457884
0.00453257