# vtk DataFile Version 2.0

ASCII
DATASET STRUCTURED_GRID
DIMENSIONS 151 51 1
POINTS 7701 float
0 0 0
0.0703713 0 0
0.140743 0 0
0.211114 0 0
0.281485 0 0
0.351857 0 0
0.422228 0 0
0.492599 0 0
0.562971 0 0
0.633342 0 0
0.703713 0 0
0.774085 0 0
0.844456 0 0
0.914827 0 0
0.985199 0 0
1.05557 0 0
1.12594 0 0
1.19631 0 0
1.26668 0 0
1.33706 0 0
1.40743 0 0
1.4778 0 0
1.54817 0 0
1.61854 0 0
1.68891 0 0
1.75928 0 0
1.82965 0 0
1.90003 0 0
1.9704 0 0
2.04077 -0.00166634 0
2.11114 -0.0125128 0
2.18151 -0.0341173 0
2.25188 -0.0680912 0
2.32225 -0.117717 0
2.39263 -0.176764 0
2.463 -0.235812 0
2.53337 -0.294859 0
2.60374 -0.353906 0
2.67411 -0.412954 0
2.74448 -0.472001 0
2.81485 -0.531049 0
2.88522 -0.590096 0
2.9556 -0.649144 0
3.02597 -0.708191 0
3.09634 -0.767239 0
3.16671 -0.826286 0
3.23708 -0.885317 0
3.30745 -0.934009 0
3.37782 -0.967283 0
3.4482 -0.988302 0
3.51857 -0.998618 0
3.58894 -1 0
3.65931 -1 0
3.72968 -1 0
3.80005 -1 0
3.87042 -1 0
3.94079 -1 0
4.01117 -1 0
4.08154 -1 0
4.15191 -1 0
4.22228 -1 0
4.29265 -1 0
4.36302 -1 0
4.43339 -1 0
4.50377 -1 0
4.57414 -1 0
4.64451 -1 0
4.71488 -1 0
4.78525 -1 0
4.85562 -1 0
4.92599 -1 0
4.99636 -1 0
5.06674 -1 0
5.13711 -1 0
5.20748 -1 0
5.27785 -1 0
5.34822 -1 0
5.41859 -1 0
5.48896 -1 0
5.55934 -1 0
5.62971 -1 0
5.70008 -1 0
5.77045 -1 0
5.84082 -1 0
5.91119 -1 0
5.98156 -1 0
6.05193 -1 0
6.12231 -0.990625 0
6.19268 -0.98125 0
6.26305 -0.971875 0
6.33342 -0.9625 0
6.40379 -0.953125 0
6.47416 -0.94375 0
6.54453 -0.934375 0
6.61491 -0.925 0
6.68528 -0.915625 0
6.75565 -0.90625 0
6.82602 -0.896875 0
6.89639 -0.8875 0
6.96676 -0.878125 0
7.03713 -0.86875 0
7.1075 -0.859375 0
7.17788 -0.85 0
7.24825 -0.840625 0
7.31862 -0.83125 0
7.38899 -0.821875 0
7.45936 -0.8125 0
7.52973 -0.803125 0
7.6001 -0.79375 0
7.67048 -0.784375 0
7.74085 -0.775 0
7.81122 -0.765625 0
7.88159 -0.75625 0
7.95196 -0.746875 0
8.02233 -0.7375 0
8.0927 -0.728125 0
8.16307 -0.71875 0
8.23345 -0.709375 0
8.30382 -0.7 0
8.37419 -0.690625 0
8.44456 -0.68125 0
8.51493 -0.671875 0
8.5853 -0.6625 0
8.65567 -0.653125 0
8.72605 -0.64375 0
8.79642 -0.634375 0
8.86679 -0.625 0
8.93716 -0.615625 0
9.00753 -0.60625 0
9.0779 -0.596875 0
9.14827 -0.5875 0
9.21864 -0.578125 0
9.28902 -0.568749 0
9.35939 -0.559374 0
9.42976 -0.549999 0
9.50013 -0.540624 0
9.5705 -0.531249 0
9.64087 -0.521874 0
9.71124 -0.512499 0
9.78162 -0.503124 0
9.85199 -0.493749 0
9.92236 -0.484374 0
9.99273 -0.474999 0
10.0631 -0.465624 0
10.1335 -0.456249 0
10.2038 -0.446874 0
10.2742 -0.437499 0
10.3446 -0.428124 0
10.415 -0.418749 0
10.4853 -0.409374 0
10.5557 -0.399999 0
0 0.02 0
0.0703713 0.02 0
0.140743 0.02 0
0.211114 0.02 0
0.281485 0.02 0
0.351857 0.02 0
0.422228 0.02 0
0.492599 0.02 0
0.562971 0.02 0
0.633342 0.02 0
0.703713 0.02 0
0.774085 0.02 0
0.844456 0.02 0
0.914827 0.02 0
0.985199 0.02 0
1.05557 0.02 0
1.12594 0.02 0
1.19631 0.02 0
1.26668 0.02 0
1.33706 0.02 0
1.40743 0.02 0
1.4778 0.02 0
1.54817 0.02 0
1.61854 0.02 0
1.68891 0.02 0
1.75928 0.02 0
1.82965 0.02 0
1.90003 0.02 0
1.9704 0.02 0
2.04077 0.018367 0
2.11114 0.00773744 0
2.18151 -0.013435 0
2.25188 -0.0467294 0
2.32225 -0.0953622 0
2.39263 -0.153229 0
2.463 -0.211095 0
2.53337 -0.268962 0
2.60374 -0.326828 0
2.67411 -0.384695 0
2.74448 -0.442561 0
2.81485 -0.500428 0
2.88522 -0.558294 0
2.9556 -0.616161 0
3.02597 -0.674028 0
3.09634 -0.731894 0
3.16671 -0.789761 0
3.23708 -0.847611 0
3.30745 -0.895328 0
3.37782 -0.927937 0
3.4482 -0.948536 0
3.51857 -0.958645 0
3.58894 -0.96 0
3.65931 -0.96 0
3.72968 -0.96 0
3.80005 -0.96 0
3.87042 -0.96 0
3.94079 -0.96 0
4.01117 -0.96 0
4.08154 -0.96 0
4.15191 -0.96 0
4.22228 -0.96 0
4.29265 -0.96 0
4.36302 -0.96 0
4.43339 -0.96 0
4.50377 -0.96 0
4.57414 -0.96 0
4.64451 -0.96 0
4.71488 -0.96 0
4.78525 -0.96 0
4.85562 -0.96 0
4.92599 -0.96 0
4.99636 -0.96 0
5.06674 -0.96 0
5.13711 -0.96 0
5.20748 -0.96 0
5.27785 -0.96 0
5.34822 -0.96 0
5.41859 -0.96 0
5.48896 -0.96 0
5.55934 -0.96 0
5.62971 -0.96 0
5.70008 -0.96 0
5.77045 -0.96 0
5.84082 -0.96 0
5.91119 -0.96 0
5.98156 -0.96 0
6.05193 -0.96 0
6.12231 -0.950812 0
6.19268 -0.941625 0
6.26305 -0.932437 0
6.33342 -0.92325 0
6.40379 -0.914062 0
6.47416 -0.904875 0
6.54453 -0.895687 0
6.61491 -0.8865 0
6.68528 -0.877312 0
6.75565 -0.868125 0
6.82602 -0.858937 0
6.89639 -0.84975 0
6.96676 -0.840562 0
7.03713 -0.831375 0
7.1075 -0.822187 0
7.17788 -0.813 0
7.24825 -0.803812 0
7.31862 -0.794625 0
7.38899 -0.785437 0
7.45936 -0.77625 0
7.52973 -0.767062 0
7.6001 -0.757875 0
7.67048 -0.748687 0
7.74085 -0.7395 0
7.81122 -0.730312 0
7.88159 -0.721125 0
7.95196 -0.711937 0
8.02233 -0.70275 0
8.0927 -0.693562 0
8.16307 -0.684375 0
8.23345 -0.675187 0
8.30382 -0.666 0
8.37419 -0.656812 0
8.44456 -0.647625 0
8.51493 -0.638437 0
8.5853 -0.62925 0
8.65567 -0.620062 0
8.72605 -0.610875 0
8.79642 -0.601687 0
8.86679 -0.5925 0
8.93716 -0.583312 0
9.00753 -0.574125 0
9.0779 -0.564937 0
9.14827 -0.55575 0
9.21864 -0.546562 0
9.28902 -0.537374 0
9.35939 -0.528187 0
9.42976 -0.518999 0
9.50013 -0.509812 0
9.5705 -0.500624 0
9.64087 -0.491437 0
9.71124 -0.482249 0
9.78162 -0.473062 0
9.85199 -0.463874 0
9.92236 -0.454687 0
9.99273 -0.445499 0
10.0631 -0.436312 0
10.1335 -0.427124 0
10.2038 -0.417937 0
10.2742 -0.408749 0
10.3446 -0.399562 0
10.415 -0.390374 0
10.4853 -0.381187 0
10.5557 -0.371999 0
0 0.04 0
0.0703713 0.04 0
0.140743 0.04 0
0.211114 0.04 0
0.281485 0.04 0
0.351857 0.04 0
0.422228 0.04 0
0.492599 0.04 0
0.562971 0.04 0
0.633342 0.04 0
0.703713 0.04 0
0.774085 0.04 0
0.844456 0.04 0
0.914827 0.04 0
0.985199 0.04 0
1.05557 0.04 0
1.12594 0.04 0
1.19631 0.04 0
1.26668 0.04 0
1.33706 0.04 0
1.40743 0.04 0
1.4778 0.04 0
1.54817 0.04 0
1.61854 0.04 0
1.68891 0.04 0
1.75928 0.04 0
1.82965 0.04 0
1.90003 0.04 0
1.9704 0.04 0
2.04077 0.0384003 0
2.11114 0.0279877 0
2.18151 0.00724739 0
2.25188 -0.0253676 0
2.32225 -0.0730079 0
2.39263 -0.129693 0
2.463 -0.186379 0
2.53337 -0.243065 0
2.60374 -0.29975 0
2.67411 -0.356436 0
2.74448 -0.413121 0
2.81485 -0.469807 0
2.88522 -0.526493 0
2.9556 -0.583178 0
3.02597 -0.639864 0
3.09634 -0.696549 0
3.16671 -0.753235 0
3.23708 -0.809904 0
3.30745 -0.856648 0
3.37782 -0.888592 0
3.4482 -0.90877 0
3.51857 -0.918673 0
3.58894 -0.92 0
3.65931 -0.92 0
3.72968 -0.92 0
3.80005 -0.92 0
3.87042 -0.92 0
3.94079 -0.92 0
4.01117 -0.92 0
4.08154 -0.92 0
4.15191 -0.92 0
4.22228 -0.92 0
4.29265 -0.92 0
4.36302 -0.92 0
4.43339 -0.92 0
4.50377 -0.92 0
4.57414 -0.92 0
4.64451 -0.92 0
4.71488 -0.92 0
4.78525 -0.92 0
4.85562 -0.92 0
4.92599 -0.92 0
4.99636 -0.92 0
5.06674 -0.92 0
5.13711 -0.92 0
5.20748 -0.92 0
5.27785 -0.92 0
5.34822 -0.92 0
5.41859 -0.92 0
5.48896 -0.92 0
5.55934 -0.92 0
5.62971 -0.92 0
5.70008 -0.92 0
5.77045 -0.92 0
5.84082 -0.92 0
5.91119 -0.92 0
5.98156 -0.92 0
6.05193 -0.92 0
6.12231 -0.911 0
6.19268 -0.902 0
6.26305 -0.893 0
6.33342 -0.884 0
6.40379 -0.875 0
6.47416 -0.866 0
6.54453 -0.857 0
6.61491 -0.848 0
6.68528 -0.839 0
6.75565 -0.83 0
6.82602 -0.821 0
6.89639 -0.812 0
6.96676 -0.803 0
7.03713 -0.794 0
7.1075 -0.785 0
7.17788 -0.776 0
7.24825 -0.767 0
7.31862 -0.758 0
7.38899 -0.749 0
7.45936 -0.74 0
7.52973 -0.731 0
7.6001 -0.722 0
7.67048 -0.713 0
7.74085 -0.704 0
7.81122 -0.695 0
7.88159 -0.686 0
7.95196 -0.677 0
8.02233 -0.668 0
8.0927 -0.659 0
8.16307 -0.65 0
8.23345 -0.641 0
8.30382 -0.632 0
8.37419 -0.623 0
8.44456 -0.614 0
8.51493 -0.605 0
8.5853 -0.596 0
8.65567 -0.587 0
8.72605 -0.578 0
8.79642 -0.569 0
8.86679 -0.56 0
8.93716 -0.551 0
9.00753 -0.542 0
9.0779 -0.533 0
9.14827 -0.524 0
9.21864 -0.515 0
9.28902 -0.506 0
9.35939 -0.496999 0
9.42976 -0.487999 0
9.50013 -0.478999 0
9.5705 -0.469999 0
9.64087 -0.460999 0
9.71124 -0.451999 0
9.78162 -0.442999 0
9.85199 -0.433999 0
9.92236 -0.424999 0
9.99273 -0.415999 0
10.0631 -0.406999 0
10.1335 -0.397999 0
10.2038 -0.388999 0
10.2742 -0.379999 0
10.3446 -0.370999 0
10.415 -0.361999 0
10.4853 -0.352999 0
10.5557 -0.343999 0
0 0.06 0
0.0703713 0.06 0
0.140743 0.06 0
0.211114 0.06 0
0.281485 0.06 0
0.351857 0.06 0
0.422228 0.06 0
0.492599 0.06 0
0.562971 0.06 0
0.633342 0.06 0
0.703713 0.06 0
0.774085 0.06 0
0.844456 0.06 0
0.914827 0.06 0
0.985199 0.06 0
1.05557 0.06 0
1.12594 0.06 0
1.19631 0.06 0
1.26668 0.06 0
1.33706 0.06 0
1.40743 0.06 0
1.4778 0.06 0
1.54817 0.06 0
1.61854 0.06 0
1.68891 0.06 0
1.75928 0.06 0
1.82965 0.06 0
1.90003 0.06 0
1.9704 0.06 0
2.04077 0.0584336 0
2.11114 0.048238 0
2.18151 0.0279297 0
2.25188 -0.00400573 0
2.32225 -0.0506536 0
2.39263 -0.106158 0
2.463 -0.161663 0
2.53337 -0.217167 0
2.60374 -0.272672 0
2.67411 -0.328177 0
2.74448 -0.383681 0
2.81485 -0.439186 0
2.88522 -0.494691 0
2.9556 -0.550195 0
3.02597 -0.6057 0
3.09634 -0.661204 0
3.16671 -0.716709 0
3.23708 -0.772198 0
3.30745 -0.817968 0
3.37782 -0.849246 0
3.4482 -0.869004 0
3.51857 -0.878701 0
3.58894 -0.88 0
3.65931 -0.88 0
3.72968 -0.88 0
3.80005 -0.88 0
3.87042 -0.88 0
3.94079 -0.88 0
4.01117 -0.88 0
4.08154 -0.88 0
4.15191 -0.88 0
4.22228 -0.88 0
4.29265 -0.88 0
4.36302 -0.88 0
4.43339 -0.88 0
4.50377 -0.88 0
4.57414 -0.88 0
4.64451 -0.88 0
4.71488 -0.88 0
4.78525 -0.88 0
4.85562 -0.88 0
4.92599 -0.88 0
4.99636 -0.88 0
5.06674 -0.88 0
5.13711 -0.88 0
5.20748 -0.88 0
5.27785 -0.88 0
5.34822 -0.88 0
5.41859 -0.88 0
5.48896 -0.88 0
5.55934 -0.88 0
5.62971 -0.88 0
5.70008 -0.88 0
5.77045 -0.88 0
5.84082 -0.88 0
5.91119 -0.88 0
5.98156 -0.88 0
6.05193 -0.88 0
6.12231 -0.871187 0
6.19268 -0.862375 0
6.26305 -0.853562 0
6.33342 -0.84475 0
6.40379 -0.835937 0
6.47416 -0.827125 0
6.54453 -0.818312 0
6.61491 -0.8095 0
6.68528 -0.800687 0
6.75565 -0.791875 0
6.82602 -0.783062 0
6.89639 -0.77425 0
6.96676 -0.765437 0
7.03713 -0.756625 0
7.1075 -0.747812 0
7.17788 -0.739 0
7.24825 -0.730187 0
7.31862 -0.721375 0
7.38899 -0.712562 0
7.45936 -0.70375 0
7.52973 -0.694937 0
7.6001 -0.686125 0
7.67048 -0.677312 0
7.74085 -0.6685 0
7.81122 -0.659687 0
7.88159 -0.650875 0
7.95196 -0.642062 0
8.02233 -0.63325 0
8.0927 -0.624437 0
8.16307 -0.615625 0
8.23345 -0.606812 0
8.30382 -0.598 0
8.37419 -0.589187 0
[...]
POINT_DATA 7701
SCALARS pressure float 1
LOOKUP_TABLE default
1.26626e-06
1.4493e-06
1.6184e-06
1.71353e-06
1.77934e-06
1.82507e-06
1.85796e-06
1.88224e-06
1.90066e-06
1.91494e-06
1.92606e-06
1.93452e-06
1.94044e-06
1.94366e-06
1.94385e-06
1.94054e-06
1.93311e-06
1.92086e-06
1.90297e-06
1.87847e-06
1.84632e-06
1.80519e-06
1.75372e-06
1.6899e-06
1.61195e-06
1.51601e-06
1.39968e-06
1.25182e-06
1.0573e-06
7.25001e-07
3.95675e-07
1.36561e-07
-3.09872e-08
-2.0786e-08
9.60015e-08
2.00295e-07
2.893e-07
3.65428e-07
4.31734e-07
4.90447e-07
5.43149e-07
5.91e-07
6.3502e-07
6.76308e-07
7.1642e-07
7.56794e-07
7.97606e-07
8.27121e-07
8.50217e-07
8.72051e-07
8.94548e-07
9.11685e-07
9.24814e-07
9.33502e-07
9.37445e-07
9.36422e-07
9.30371e-07
9.19381e-07
9.03681e-07
8.83624e-07
8.59666e-07
8.32342e-07
8.02242e-07
7.69987e-07
7.36211e-07
7.0154e-07
6.66573e-07
6.31877e-07
5.97969e-07
5.65314e-07
5.3432e-07
5.05331e-07
4.78638e-07
4.54465e-07
4.32986e-07
4.14313e-07
3.98523e-07
3.85619e-07
3.75613e-07
3.68389e-07
3.63983e-07
3.6202e-07
3.62949e-07
3.65208e-07
3.72413e-07
3.74369e-07
4.11856e-07
4.14e-07
4.16402e-07
4.17189e-07
4.18365e-07
4.20296e-07
4.23245e-07
4.2731e-07
4.32516e-07
4.38839e-07
4.46222e-07
4.54586e-07
4.63842e-07
4.73889e-07
4.84627e-07
4.95955e-07
5.07775e-07
5.19995e-07
5.32528e-07
5.45295e-07
5.58223e-07
5.71249e-07
5.84315e-07
5.97367e-07
6.10362e-07
6.23256e-07
6.36012e-07
6.48593e-07
6.60966e-07
6.73096e-07
6.84949e-07
6.96487e-07
7.07673e-07
7.18466e-07
7.28822e-07
7.38696e-07
7.48041e-07
7.56808e-07
7.64948e-07
7.72413e-07
7.79158e-07
7.85139e-07
7.9032e-07
7.94669e-07
7.98164e-07
8.00791e-07
8.02542e-07
8.03423e-07
8.03446e-07
8.02635e-07
8.01011e-07
7.98624e-07
7.95472e-07
7.9167e-07
7.87061e-07
7.82062e-07
7.75731e-07
7.70172e-07
7.60175e-07
7.57672e-07
7.32356e-07
7.55915e-07
6.37976e-07
8.28415e-07
0
1.30251e-06
1.43878e-06
1.61177e-06
1.70793e-06
1.77539e-06
1.82233e-06
1.85617e-06
1.88116e-06
1.90008e-06
1.91466e-06
1.92592e-06
1.93438e-06
1.94017e-06
1.94316e-06
1.94304e-06
1.93933e-06
1.93146e-06
1.9187e-06
1.90024e-06
1.87513e-06
1.8423e-06
1.80042e-06
1.74812e-06
1.68331e-06
1.60422e-06
1.50668e-06
1.38836e-06
1.23728e-06
1.04705e-06
7.41333e-07
4.37094e-07
1.90974e-07
1.45814e-08
-2.68595e-09
9.54407e-08
1.93843e-07
2.81117e-07
3.56832e-07
4.23142e-07
4.82e-07
5.34901e-07
5.8296e-07
6.27144e-07
6.68421e-07
7.08223e-07
7.47863e-07
7.89306e-07
8.20434e-07
8.44381e-07
8.66331e-07
8.88536e-07
9.04535e-07
9.17043e-07
9.25336e-07
9.29064e-07
9.27983e-07
9.22019e-07
9.11248e-07
8.95885e-07
8.7627e-07
8.52843e-07
8.26123e-07
7.96684e-07
7.65133e-07
7.32088e-07
6.98162e-07
6.63944e-07
6.29987e-07
5.96801e-07
5.64843e-07
5.34514e-07
5.06154e-07
4.8005e-07
4.56422e-07
4.35445e-07
4.17227e-07
4.01846e-07
3.89303e-07
3.79621e-07
3.72666e-07
3.68521e-07
3.66737e-07
3.67979e-07
3.70268e-07
3.7836e-07
3.78742e-07
4.12649e-07
4.13361e-07
4.16582e-07
4.18082e-07
4.19899e-07
4.2234e-07
4.25694e-07
4.30077e-07
4.35526e-07
4.42028e-07
4.49533e-07
4.57971e-07
4.67256e-07
4.77296e-07
4.87993e-07
4.99252e-07
5.1098e-07
5.23087e-07
5.35492e-07
5.48118e-07
5.60896e-07
5.73763e-07
5.86665e-07
5.9955e-07
6.12373e-07
6.25096e-07
6.37679e-07
6.50088e-07
6.62288e-07
6.74246e-07
6.85927e-07
6.97295e-07
7.08312e-07
7.18937e-07
7.29129e-07
7.38842e-07
7.48029e-07
7.56643e-07
7.64636e-07
7.71961e-07
7.78573e-07
7.84432e-07
7.895e-07
7.93749e-07
7.97156e-07
7.99706e-07
8.01393e-07
8.02222e-07
8.02203e-07
8.01359e-07
7.99706e-07
7.97294e-07
7.94107e-07
7.90266e-07
7.85569e-07
7.80489e-07
7.73884e-07
7.68197e-07
7.57194e-07
7.54846e-07
7.25013e-07
7.52162e-07
6.12234e-07
8.3987e-07
0
1.3319e-06
1.43995e-06
1.60909e-06
1.70488e-06
1.77294e-06
1.82057e-06
1.85504e-06
1.88053e-06
1.89982e-06
1.91464e-06
1.92601e-06
1.93446e-06
1.94014e-06
1.94294e-06
1.94254e-06
1.9385e-06
1.93023e-06
1.91703e-06
1.89809e-06
1.87245e-06
1.83906e-06
1.79655e-06
1.74358e-06
1.67798e-06
1.59802e-06
1.49935e-06
1.37995e-06
1.2275e-06
1.04187e-06
7.59381e-07
4.76277e-07
2.42728e-07
6.16702e-08
1.95684e-08
9.82413e-08
1.89433e-07
2.74201e-07
3.49153e-07
4.15317e-07
4.74258e-07
5.27335e-07
5.75594e-07
6.19944e-07
6.61217e-07
7.00761e-07
7.39504e-07
7.81577e-07
8.14376e-07
8.39271e-07
8.6171e-07
8.84308e-07
8.99691e-07
9.1186e-07
9.19927e-07
9.23525e-07
9.22394e-07
9.16451e-07
9.05765e-07
8.9055e-07
8.71138e-07
8.47964e-07
8.21542e-07
7.92441e-07
7.6126e-07
7.28614e-07
6.95106e-07
6.61321e-07
6.27807e-07
5.95067e-07
5.63554e-07
5.33664e-07
5.05734e-07
4.80046e-07
4.56819e-07
4.36224e-07
4.18365e-07
4.03325e-07
3.91093e-07
3.81706e-07
3.75006e-07
3.71125e-07
3.69511e-07
3.71047e-07
3.73287e-07
3.81871e-07
3.81307e-07
4.13088e-07
4.13483e-07
4.16858e-07
4.18734e-07
4.2093e-07
4.2372e-07
4.27379e-07
4.32021e-07
4.37685e-07
4.4436e-07
4.51999e-07
4.60532e-07
4.69879e-07
4.79949e-07
4.90648e-07
5.01884e-07
5.13566e-07
5.25609e-07
5.37933e-07
5.50465e-07
5.63137e-07
5.75889e-07
5.88668e-07
6.01426e-07
6.14118e-07
6.26705e-07
6.39152e-07
6.51422e-07
6.63484e-07
6.75303e-07
6.86846e-07
6.98076e-07
7.08956e-07
7.19446e-07
7.29504e-07
7.39085e-07
7.48144e-07
7.56634e-07
7.64506e-07
7.71716e-07
7.78218e-07
7.83974e-07
7.88947e-07
7.93108e-07
7.96435e-07
7.98915e-07
8.00541e-07
8.01318e-07
8.01253e-07
8.00371e-07
7.98683e-07
7.96239e-07
7.93011e-07
7.89131e-07
7.84345e-07
7.79208e-07
7.72338e-07
7.66633e-07
7.5467e-07
7.52936e-07
7.19059e-07
7.51835e-07
5.95573e-07
8.59436e-07
0
1.35295e-06
1.44966e-06
1.60955e-06
1.70399e-06
1.77179e-06
1.81965e-06
1.85446e-06
1.88029e-06
1.89985e-06
1.91485e-06
1.92632e-06
1.93478e-06
1.94038e-06
1.94302e-06
1.9424e-06
1.93808e-06
1.92948e-06
1.91591e-06
1.89657e-06
1.87049e-06
1.83662e-06
1.79361e-06
1.74011e-06
1.67392e-06
1.59341e-06
1.49408e-06
1.37444e-06
1.22234e-06
1.04204e-06
7.80572e-07
5.15599e-07
2.9309e-07
1.09682e-07
4.55518e-08
1.04463e-07
1.87181e-07
2.68587e-07
3.42296e-07
4.08046e-07
4.66908e-07
5.2005e-07
5.68425e-07
6.12878e-07
6.54085e-07
6.93342e-07
7.30974e-07
7.73512e-07
8.07996e-07
8.33909e-07
8.56971e-07
8.8023e-07
8.95167e-07
9.07051e-07
9.14914e-07
9.1837e-07
9.17148e-07
9.1116e-07
9.00475e-07
8.85303e-07
8.65977e-07
8.42931e-07
8.16679e-07
7.87785e-07
7.56849e-07
7.24479e-07
6.91278e-07
6.57824e-07
6.24662e-07
5.92291e-07
5.61158e-07
5.31656e-07
5.04116e-07
4.78817e-07
4.55975e-07
4.3576e-07
4.18269e-07
4.03587e-07
3.91692e-07
3.82637e-07
3.76225e-07
3.72651e-07
3.71234e-07
3.73087e-07
3.75263e-07
3.84182e-07
3.82932e-07
4.12874e-07
4.13451e-07
4.16816e-07
4.19041e-07
4.2159e-07
4.24728e-07
4.28705e-07
4.33629e-07
4.39537e-07
4.46416e-07
4.54222e-07
4.62887e-07
4.7233e-07
4.82463e-07
4.93195e-07
5.04436e-07
5.16099e-07
5.28101e-07
5.40365e-07
5.5282e-07
5.65401e-07
5.78051e-07
5.90719e-07
6.03358e-07
6.15925e-07
6.28384e-07
6.40699e-07
6.52837e-07
6.64764e-07
6.76448e-07
6.87856e-07
6.98953e-07
7.097e-07
7.20059e-07
7.29989e-07
7.39444e-07
7.48379e-07
7.56748e-07
7.64504e-07
7.71602e-07
7.77998e-07
7.83652e-07
7.88531e-07
7.92605e-07
7.95852e-07
7.98259e-07
7.9982e-07
8.00539e-07
8.00424e-07
7.99498e-07
7.97769e-07
7.95289e-07
7.92014e-07
7.88099e-07
7.83225e-07
7.78056e-07
7.7093e-07
7.65311e-07
7.52425e-07
7.51713e-07
7.1416e-07
7.53805e-07
5.84652e-07
8.8282e-07
0
1.36537e-06
1.4653e-06
1.61261e-06
1.70482e-06
1.77168e-06
1.81941e-06
1.85432e-06
1.88035e-06
1.90011e-06
1.91528e-06
1.92686e-06
1.93535e-06
1.94091e-06
1.94344e-06
1.94266e-06
1.93812e-06
1.92926e-06
1.91539e-06
1.89572e-06
1.86928e-06
1.83505e-06
1.79165e-06
1.73777e-06
1.67119e-06
1.5904e-06
1.49089e-06
1.37174e-06
1.22139e-06
1.04705e-06
8.049e-07
5.5607e-07
3.43202e-07
1.58925e-07
7.52543e-08
1.14181e-07
1.87191e-07
2.64364e-07
3.36323e-07
4.01368e-07
4.59975e-07
5.1307e-07
5.6148e-07
6.05983e-07
6.47077e-07
6.86056e-07
7.22438e-07
7.65272e-07
8.01439e-07
8.2844e-07
8.52197e-07
8.76274e-07
8.90904e-07
9.02515e-07
9.10154e-07
9.13416e-07
9.12027e-07
9.05898e-07
8.951e-07
8.79847e-07
8.60474e-07
8.3742e-07
8.11199e-07
7.82378e-07
7.51556e-07
7.1934e-07
6.86331e-07
6.53105e-07
6.20201e-07
5.88117e-07
5.57294e-07
5.28121e-07
5.00923e-07
4.7598e-07
4.535e-07
4.33653e-07
4.16528e-07
4.02214e-07
3.90673e-07
3.81976e-07
3.7588e-07
3.7265e-07
3.71452e-07
3.73638e-07
3.75767e-07
3.84925e-07
3.83311e-07
4.11616e-07
4.12784e-07
4.16137e-07
4.18722e-07
4.21636e-07
4.25141e-07
4.29464e-07
4.34703e-07
4.40894e-07
4.48021e-07
4.56039e-07
4.64879e-07
4.74463e-07
4.84703e-07
4.95511e-07
5.06797e-07
5.18478e-07
5.30472e-07
5.42706e-07
5.55111e-07
5.67626e-07
5.80196e-07
5.92771e-07
6.05307e-07
6.17765e-07
6.30108e-07
6.42303e-07
6.54317e-07
6.66119e-07
6.77677e-07
6.88958e-07
6.99928e-07
7.1055e-07
7.20785e-07
7.30592e-07
7.39927e-07
7.48744e-07
7.56998e-07
7.64643e-07
7.71633e-07
7.77925e-07
7.8348e-07
7.88264e-07
7.92249e-07
7.95413e-07
7.97744e-07
7.99236e-07
7.99892e-07
7.9972e-07
7.98745e-07
7.96969e-07
7.94451e-07
7.91128e-07
7.87184e-07
7.82228e-07
7.77064e-07
7.69706e-07
7.64298e-07
7.50576e-07
7.51281e-07
7.10525e-07
7.57781e-07
5.78337e-07
9.0783e-07
0
1.36963e-06
1.48484e-06
1.61804e-06
1.70704e-06
1.77238e-06
1.81964e-06
1.85449e-06
1.88062e-06
1.90056e-06
1.9159e-06
1.92761e-06
1.93619e-06
1.94177e-06
1.94426e-06
1.94338e-06
1.9387e-06
1.92964e-06
1.91555e-06
1.89562e-06
1.86891e-06
1.8344e-06
1.79073e-06
1.73661e-06
1.66983e-06
1.58902e-06
1.48976e-06
1.3717e-06
1.22417e-06
1.05616e-06
8.31765e-07
5.97767e-07
3.93538e-07
2.09519e-07
1.08665e-07
1.2754e-07
1.89624e-07
2.61642e-07
3.31292e-07
3.9531e-07
4.53465e-07
5.06383e-07
5.54734e-07
5.99229e-07
6.40165e-07
6.78887e-07
7.13934e-07
7.56862e-07
7.94656e-07
8.22788e-07
8.47232e-07
8.7216e-07
8.86539e-07
8.97814e-07
9.05149e-07
9.08113e-07
9.0644e-07
9.00045e-07
8.89003e-07
8.73536e-07
8.53986e-07
8.30797e-07
8.04487e-07
7.75627e-07
7.44816e-07
7.12662e-07
6.79762e-07
6.46692e-07
6.13987e-07
5.82138e-07
5.51583e-07
5.22707e-07
4.95829e-07
4.71225e-07
4.491e-07
4.29622e-07
4.12872e-07
3.98944e-07
3.87778e-07
3.7947e-07
3.73721e-07
3.70873e-07
3.69927e-07
3.7247e-07
3.7461e-07
3.83965e-07
3.82301e-07
4.09062e-07
4.11088e-07
4.14523e-07
4.17521e-07
4.20856e-07
4.24787e-07
4.29513e-07
4.35127e-07
4.4166e-07
4.49095e-07
4.57384e-07
4.66459e-07
4.7624e-07
4.86641e-07
4.97575e-07
5.08954e-07
5.20696e-07
5.32723e-07
5.44963e-07
5.57351e-07
5.69828e-07
5.82342e-07
5.94847e-07
6.07299e-07
6.19663e-07
6.31904e-07
6.4399e-07
6.55891e-07
6.67577e-07
6.79016e-07
6.90178e-07
7.01028e-07
7.1153e-07
7.21646e-07
7.31335e-07
7.40553e-07
7.49256e-07
7.57397e-07
7.64931e-07
7.71814e-07
7.78001e-07
7.83456e-07
7.88143e-07
7.92035e-07
7.95112e-07
7.97361e-07
7.98776e-07
7.99364e-07
7.99128e-07
7.98098e-07
7.96269e-07
7.93712e-07
7.90342e-07
7.86382e-07
7.81356e-07
7.76242e-07
7.68692e-07
7.6363e-07
7.49187e-07
7.51665e-07
7.08176e-07
7.63414e-07
5.75459e-07
9.33195e-07
0
1.36667e-06
1.50657e-06
1.62573e-06
1.71041e-06
1.77369e-06
1.82018e-06
1.85481e-06
1.88101e-06
1.90112e-06
1.91667e-06
1.92858e-06
1.93731e-06
1.943e-06
1.94553e-06
1.94464e-06
1.93988e-06
1.93072e-06
1.91647e-06
1.89637e-06
1.86947e-06
1.83477e-06
1.79092e-06
1.73668e-06
1.66988e-06
1.5893e-06
1.49067e-06
1.37418e-06
1.23021e-06
1.06864e-06
8.60438e-07
6.40336e-07
4.44137e-07
2.61394e-07
1.45716e-07
1.44726e-07
1.9471e-07
2.60576e-07
3.27289e-07
3.89908e-07
4.47381e-07
4.99971e-07
5.48155e-07
5.92573e-07
6.33299e-07
6.71792e-07
7.05474e-07
7.48276e-07
7.87597e-07
8.16875e-07
8.41947e-07
8.67664e-07
8.81788e-07
8.92608e-07
8.99502e-07
9.02021e-07
8.9991e-07
8.93093e-07
8.81657e-07
8.65832e-07
8.4597e-07
8.22522e-07
7.96013e-07
7.67016e-07
7.36132e-07
7.03968e-07
6.71119e-07
6.38157e-07
6.05612e-07
5.7397e-07
5.43663e-07
5.15071e-07
4.88507e-07
4.64242e-07
4.42476e-07
4.23379e-07
4.0702e-07
3.935e-07
3.82735e-07
3.74848e-07
3.6948e-07
3.67051e-07
3.66399e-07
3.69332e-07
3.71571e-07
3.8112e-07
3.79714e-07
4.04999e-07
4.08045e-07
4.11709e-07
4.15195e-07
4.19036e-07
4.23475e-07
4.28686e-07
4.34756e-07
4.41711e-07
4.4953e-07
4.58165e-07
4.67547e-07
4.77595e-07
4.88224e-07
4.99346e-07
5.10876e-07
5.22733e-07
5.34841e-07
5.47132e-07
5.59542e-07
5.72016e-07
5.84504e-07
5.96964e-07
6.09356e-07
6.21645e-07
6.338e-07
6.45792e-07
6.57591e-07
6.6917e-07
6.80499e-07
6.91547e-07
7.02282e-07
7.12669e-07
7.22669e-07
7.32242e-07
7.41345e-07
7.49933e-07
7.57961e-07
7.65384e-07
7.72156e-07
7.78235e-07
7.83584e-07
7.88168e-07
7.91961e-07
7.94943e-07
7.97102e-07
7.98433e-07
7.98942e-07
7.98635e-07
7.97543e-07
7.95659e-07
7.93062e-07
7.89648e-07
7.85686e-07
7.8061e-07
7.75598e-07
7.67904e-07
7.6333e-07
7.48296e-07
7.52856e-07
7.07054e-07
7.70401e-07
5.75105e-07
9.5825e-07
0
1.35762e-06
1.52898e-06
1.63558e-06
1.71481e-06
1.77543e-06
1.82087e-06
1.85517e-06
1.88139e-06
1.90172e-06
1.91756e-06
1.92976e-06
1.93875e-06
1.94464e-06
1.94732e-06
1.9465e-06
1.94176e-06
1.93257e-06
1.91825e-06
1.89806e-06
1.87105e-06
1.83624e-06
1.79231e-06
1.73808e-06
1.67142e-06
1.59126e-06
1.49359e-06
1.37902e-06
1.2391e-06
1.08389e-06
8.90288e-07
6.83287e-07
4.94795e-07
3.14328e-07
1.86248e-07
1.65919e-07
2.02742e-07
2.61387e-07
3.24441e-07
3.85219e-07
4.41737e-07
4.93819e-07
5.41702e-07
5.85959e-07
6.26408e-07
6.64702e-07
6.97035e-07
7.39482e-07
7.80176e-07
8.10592e-07
8.36191e-07
8.62553e-07
8.7637e-07
8.86568e-07
8.92842e-07
8.94729e-07
8.91994e-07
8.84576e-07
8.72576e-07
8.56239e-07
8.35926e-07
8.12099e-07
7.85288e-07
7.56069e-07
7.25043e-07
6.92817e-07
6.59982e-07
6.27102e-07
5.94701e-07
5.6326e-07
5.33203e-07
5.04901e-07
4.78662e-07
4.5475e-07
4.33362e-07
4.14668e-07
3.98724e-07
3.85639e-07
3.75306e-07
3.67874e-07
3.62922e-07
3.60953e-07
3.60647e-07
3.64009e-07
3.6646e-07
3.76222e-07
3.75363e-07
3.99246e-07
4.03401e-07
4.07462e-07
4.11527e-07
4.15976e-07
4.21023e-07
4.26821e-07
4.33446e-07
4.40919e-07
4.49216e-07
4.58288e-07
4.68064e-07
4.78463e-07
4.89398e-07
5.00783e-07
5.12533e-07
5.24569e-07
5.36816e-07
5.4921e-07
5.61689e-07
5.74202e-07
5.86702e-07
5.99148e-07
6.11506e-07
6.23744e-07
6.35832e-07
6.47745e-07
6.59456e-07
6.70938e-07
6.82164e-07
6.93105e-07
7.03729e-07
7.14002e-07
7.23888e-07
7.33344e-07
7.42331e-07
7.50802e-07
7.58713e-07
7.66018e-07
7.72673e-07
7.78637e-07
7.83871e-07
7.88343e-07
7.92027e-07
7.94903e-07
7.9696e-07
7.98195e-07
7.98617e-07
7.98229e-07
7.97069e-07
7.95123e-07
7.92489e-07
7.89035e-07
7.85092e-07
7.79988e-07
7.75135e-07
7.67354e-07
7.63408e-07
7.47914e-07
7.54815e-07
7.07051e-07
7.78474e-07
5.76578e-07
9.82668e-07
0
1.34355e-06
1.55065e-06
1.64737e-06
1.72016e-06
1.77751e-06
1.82156e-06
1.85541e-06
1.88168e-06
1.90229e-06
1.91853e-06
1.93114e-06
1.94052e-06
1.94674e-06
1.94968e-06
1.94905e-06
1.94444e-06
1.93532e-06
1.92102e-06
1.9008e-06
1.87375e-06
1.83892e-06
1.795e-06
1.74087e-06
1.67449e-06
1.59494e-06
1.49849e-06
1.38609e-06
1.25048e-06
1.10144e-06
9.20853e-07
7.26166e-07
5.45201e-07
3.6799e-07
2.29995e-07
1.91245e-07
2.14046e-07
2.64361e-07
3.22932e-07
3.81342e-07
4.36568e-07
4.8792e-07
5.35338e-07
5.79325e-07
6.1941e-07
6.57517e-07
6.88563e-07
7.30421e-07
7.72276e-07
8.03791e-07
8.29793e-07
8.56584e-07
8.70002e-07
8.79381e-07
8.84818e-07
8.85856e-07
8.82286e-07
8.74068e-07
8.61324e-07
8.44312e-07
8.23409e-07
7.99086e-07
7.71878e-07
7.42365e-07
7.11146e-07
6.78824e-07
6.45982e-07
6.13179e-07
5.80928e-07
5.49702e-07
5.19912e-07
4.91925e-07
4.66039e-07
4.42509e-07
4.21529e-07
4.0327e-07
3.87773e-07
3.75158e-07
3.65291e-07
3.58352e-07
3.53857e-07
3.52388e-07
3.52488e-07
3.5632e-07
3.5911e-07
3.69122e-07
3.6907e-07
3.91653e-07
3.9695e-07
4.0158e-07
4.06328e-07
4.11496e-07
4.17264e-07
4.23763e-07
4.31057e-07
4.39159e-07
4.48044e-07
4.57658e-07
4.67929e-07
4.78775e-07
4.90108e-07
5.01843e-07
5.13894e-07
5.26183e-07
5.3864e-07
5.51198e-07
5.63803e-07
5.76403e-07
5.88957e-07
6.01429e-07
6.13785e-07
6.25997e-07
6.38042e-07
6.49894e-07
6.6153e-07
6.72926e-07
6.84057e-07
6.94896e-07
7.05413e-07
7.15574e-07
7.25342e-07
7.3468e-07
7.43544e-07
7.51892e-07
7.59677e-07
7.66856e-07
7.73384e-07
7.7922e-07
7.84327e-07
7.88673e-07
7.92233e-07
7.94989e-07
7.96931e-07
7.98057e-07
7.98378e-07
7.97899e-07
7.96662e-07
7.94651e-07
7.9198e-07
7.88495e-07
7.84591e-07
7.79484e-07
7.74852e-07
7.67042e-07
7.63859e-07
7.48029e-07
7.57482e-07
7.08032e-07
7.87402e-07
5.79353e-07
1.00631e-06
0
1.32541e-06
1.5703e-06
1.66067e-06
1.72641e-06
1.77982e-06
1.82214e-06
1.85544e-06
1.88178e-06
1.90278e-06
1.91954e-06
1.93273e-06
1.94265e-06
1.94936e-06
1.9527e-06
1.95239e-06
1.94802e-06
1.93906e-06
1.92487e-06
1.90472e-06
1.87771e-06
1.84292e-06
1.79909e-06
1.74516e-06
1.67917e-06
1.60037e-06
1.50534e-06
1.39528e-06
1.26407e-06
1.12092e-06
9.51836e-07
7.68631e-07
5.95032e-07
4.21992e-07
2.7658e-07
2.20735e-07
2.28943e-07
2.69838e-07
3.23009e-07
3.78426e-07
4.31947e-07
4.82292e-07
5.29039e-07
5.72615e-07
6.12221e-07
6.50122e-07
6.79971e-07
7.21008e-07
7.63755e-07
7.96288e-07
8.22549e-07
8.49495e-07
8.62386e-07
8.70731e-07
8.75089e-07
8.7504e-07
8.70408e-07
8.61181e-07
8.47503e-07
8.29654e-07
8.08026e-07
7.83097e-07
7.55409e-07
7.25543e-07
6.94095e-07
6.61659e-07
6.28811e-07
5.96097e-07
5.64021e-07
5.3304e-07
5.03556e-07
4.75925e-07
4.50433e-07
4.27328e-07
4.06798e-07
3.89014e-07
3.74005e-07
3.619e-07
3.52538e-07
3.46131e-07
3.42139e-07
3.41212e-07
3.41783e-07
3.4613e-07
3.4939e-07
3.59695e-07
3.60679e-07
3.82098e-07
3.88537e-07
3.93898e-07
3.99441e-07
4.05442e-07
4.12052e-07
4.19375e-07
4.27461e-07
4.36317e-07
4.4591e-07
4.56184e-07
4.67064e-07
4.78467e-07
4.90303e-07
5.02486e-07
5.14931e-07
5.27561e-07
5.40304e-07
5.531e-07
5.65895e-07
5.78641e-07
5.913e-07
6.03839e-07
6.16231e-07
6.2845e-07
6.40476e-07
6.52288e-07
6.63865e-07
6.75188e-07
6.86232e-07
6.96974e-07
7.07383e-07
7.1743e-07
7.27078e-07
7.3629e-07
7.45024e-07
7.53238e-07
7.60886e-07
7.67924e-07
7.7431e-07
7.80002e-07
7.84965e-07
7.89167e-07
7.92585e-07
7.95202e-07
7.97011e-07
7.9801e-07
7.98216e-07
7.97632e-07
7.96311e-07
7.94228e-07
7.91524e-07
7.88013e-07
7.84172e-07
7.7909e-07
7.74741e-07
7.66961e-07
7.64668e-07
7.48614e-07
7.60781e-07
7.09854e-07
7.96986e-07
5.8304e-07
1.02913e-06
0
1.30401e-06
1.58678e-06
1.67481e-06
1.73342e-06
1.78229e-06
1.82252e-06
1.85515e-06
1.8816e-06
1.90311e-06
1.92058e-06
1.93453e-06
1.94518e-06
1.95254e-06
1.95645e-06
1.95661e-06
1.9526e-06
1.94392e-06
1.92992e-06
1.90992e-06
1.88303e-06
1.84836e-06
1.80468e-06
1.75102e-06
1.68553e-06
1.60758e-06
1.51411e-06
1.40647e-06
1.27964e-06
1.14206e-06
9.83073e-07
8.10465e-07
6.44014e-07
4.75921e-07
3.25529e-07
2.54288e-07
2.47703e-07
2.7819e-07
3.24983e-07
3.76679e-07
4.27994e-07
4.76989e-07
5.22807e-07
5.65788e-07
6.04763e-07
6.42395e-07
6.71151e-07
7.1114e-07
7.54446e-07
7.87863e-07
8.14224e-07
8.41004e-07
8.53206e-07
8.60294e-07
8.63318e-07
8.61934e-07
8.56007e-07
8.45559e-07
8.30763e-07
8.11921e-07
7.8944e-07
7.63809e-07
7.35574e-07
7.05313e-07
6.73616e-07
6.41068e-07
6.08231e-07
5.75638e-07
5.43775e-07
5.13088e-07
4.83961e-07
4.56739e-07
4.31695e-07
4.0907e-07
3.89042e-07
3.71783e-07
3.57309e-07
3.45758e-07
3.36946e-07
3.31112e-07
3.27671e-07
3.27328e-07
3.28442e-07
3.33348e-07
3.37206e-07
3.47854e-07
3.50064e-07
3.70487e-07
3.7805e-07
3.84289e-07
3.90741e-07
3.97693e-07
4.05267e-07
4.13542e-07
4.22552e-07
4.32292e-07
4.42723e-07
4.53785e-07
4.654e-07
4.7748e-07
4.89935e-07
5.02676e-07
5.15619e-07
5.28685e-07
5.41806e-07
5.54922e-07
5.6798e-07
5.80938e-07
5.93761e-07
6.06419e-07
6.18889e-07
6.31151e-07
6.43188e-07
6.54983e-07
6.6652e-07
6.77781e-07
6.88746e-07
6.99394e-07
7.09697e-07
7.19625e-07
7.29146e-07
7.38223e-07
7.46814e-07
7.54879e-07
7.62373e-07
7.69252e-07
7.75475e-07
7.81002e-07
7.85798e-07
7.89834e-07
7.93087e-07
7.95543e-07
7.97197e-07
7.9805e-07
7.98122e-07
7.97419e-07
7.96002e-07
7.93842e-07
7.91106e-07
7.87577e-07
7.83823e-07
7.78794e-07
7.74787e-07
7.67096e-07
7.65807e-07
7.49625e-07
7.64629e-07
7.12371e-07
8.07055e-07
5.87347e-07
1.05113e-06
0
1.28007e-06
1.59923e-06
1.68898e-06
1.74095e-06
1.78483e-06
1.8226e-06
1.85444e-06
1.88106e-06
1.90324e-06
1.92162e-06
1.93654e-06
1.94814e-06
1.95636e-06
1.96101e-06
1.96179e-06
1.95829e-06
1.95e-06
1.93631e-06
1.91654e-06
1.88983e-06
1.85534e-06
1.81188e-06
1.75855e-06
1.69363e-06