# vtk DataFile Version 2.0

ASCII
DATASET STRUCTURED_GRID
DIMENSIONS 151 51 1
POINTS 7701 float
0 0 0
0.0703713 0 0
0.140743 0 0
0.211114 0 0
0.281485 0 0
0.351857 0 0
0.422228 0 0
0.492599 0 0
0.562971 0 0
0.633342 0 0
0.703713 0 0
0.774085 0 0
0.844456 0 0
0.914827 0 0
0.985199 0 0
1.05557 0 0
1.12594 0 0
1.19631 0 0
1.26668 0 0
1.33706 0 0
1.40743 0 0
1.4778 0 0
1.54817 0 0
1.61854 0 0
1.68891 0 0
1.75928 0 0
1.82965 0 0
1.90003 0 0
1.9704 0 0
2.04077 -0.00166634 0
2.11114 -0.0125128 0
2.18151 -0.0341173 0
2.25188 -0.0680912 0
2.32225 -0.117717 0
2.39263 -0.176764 0
2.463 -0.235812 0
2.53337 -0.294859 0
2.60374 -0.353906 0
2.67411 -0.412954 0
2.74448 -0.472001 0
2.81485 -0.531049 0
2.88522 -0.590096 0
2.9556 -0.649144 0
3.02597 -0.708191 0
3.09634 -0.767239 0
3.16671 -0.826286 0
3.23708 -0.885317 0
3.30745 -0.934009 0
3.37782 -0.967283 0
3.4482 -0.988302 0
3.51857 -0.998618 0
3.58894 -1 0
3.65931 -1 0
3.72968 -1 0
3.80005 -1 0
3.87042 -1 0
3.94079 -1 0
4.01117 -1 0
4.08154 -1 0
4.15191 -1 0
4.22228 -1 0
4.29265 -1 0
4.36302 -1 0
4.43339 -1 0
4.50377 -1 0
4.57414 -1 0
4.64451 -1 0
4.71488 -1 0
4.78525 -1 0
4.85562 -1 0
4.92599 -1 0
4.99636 -1 0
5.06674 -1 0
5.13711 -1 0
5.20748 -1 0
5.27785 -1 0
5.34822 -1 0
5.41859 -1 0
5.48896 -1 0
5.55934 -1 0
5.62971 -1 0
5.70008 -1 0
5.77045 -1 0
5.84082 -1 0
5.91119 -1 0
5.98156 -1 0
6.05193 -1 0
6.12231 -0.990625 0
6.19268 -0.98125 0
6.26305 -0.971875 0
6.33342 -0.9625 0
6.40379 -0.953125 0
6.47416 -0.94375 0
6.54453 -0.934375 0
6.61491 -0.925 0
6.68528 -0.915625 0
6.75565 -0.90625 0
6.82602 -0.896875 0
6.89639 -0.8875 0
6.96676 -0.878125 0
7.03713 -0.86875 0
7.1075 -0.859375 0
7.17788 -0.85 0
7.24825 -0.840625 0
7.31862 -0.83125 0
7.38899 -0.821875 0
7.45936 -0.8125 0
7.52973 -0.803125 0
7.6001 -0.79375 0
7.67048 -0.784375 0
7.74085 -0.775 0
7.81122 -0.765625 0
7.88159 -0.75625 0
7.95196 -0.746875 0
8.02233 -0.7375 0
8.0927 -0.728125 0
8.16307 -0.71875 0
8.23345 -0.709375 0
8.30382 -0.7 0
8.37419 -0.690625 0
8.44456 -0.68125 0
8.51493 -0.671875 0
8.5853 -0.6625 0
8.65567 -0.653125 0
8.72605 -0.64375 0
8.79642 -0.634375 0
8.86679 -0.625 0
8.93716 -0.615625 0
9.00753 -0.60625 0
9.0779 -0.596875 0
9.14827 -0.5875 0
9.21864 -0.578125 0
9.28902 -0.568749 0
9.35939 -0.559374 0
9.42976 -0.549999 0
9.50013 -0.540624 0
9.5705 -0.531249 0
9.64087 -0.521874 0
9.71124 -0.512499 0
9.78162 -0.503124 0
9.85199 -0.493749 0
9.92236 -0.484374 0
9.99273 -0.474999 0
10.0631 -0.465624 0
10.1335 -0.456249 0
10.2038 -0.446874 0
10.2742 -0.437499 0
10.3446 -0.428124 0
10.415 -0.418749 0
10.4853 -0.409374 0
10.5557 -0.399999 0
0 0.02 0
0.0703713 0.02 0
0.140743 0.02 0
0.211114 0.02 0
0.281485 0.02 0
0.351857 0.02 0
0.422228 0.02 0
0.492599 0.02 0
0.562971 0.02 0
0.633342 0.02 0
0.703713 0.02 0
0.774085 0.02 0
0.844456 0.02 0
0.914827 0.02 0
0.985199 0.02 0
1.05557 0.02 0
1.12594 0.02 0
1.19631 0.02 0
1.26668 0.02 0
1.33706 0.02 0
1.40743 0.02 0
1.4778 0.02 0
1.54817 0.02 0
1.61854 0.02 0
1.68891 0.02 0
1.75928 0.02 0
1.82965 0.02 0
1.90003 0.02 0
1.9704 0.02 0
2.04077 0.018367 0
2.11114 0.00773744 0
2.18151 -0.013435 0
2.25188 -0.0467294 0
2.32225 -0.0953622 0
2.39263 -0.153229 0
2.463 -0.211095 0
2.53337 -0.268962 0
2.60374 -0.326828 0
2.67411 -0.384695 0
2.74448 -0.442561 0
2.81485 -0.500428 0
2.88522 -0.558294 0
2.9556 -0.616161 0
3.02597 -0.674028 0
3.09634 -0.731894 0
3.16671 -0.789761 0
3.23708 -0.847611 0
3.30745 -0.895328 0
3.37782 -0.927937 0
3.4482 -0.948536 0
3.51857 -0.958645 0
3.58894 -0.96 0
3.65931 -0.96 0
3.72968 -0.96 0
3.80005 -0.96 0
3.87042 -0.96 0
3.94079 -0.96 0
4.01117 -0.96 0
4.08154 -0.96 0
4.15191 -0.96 0
4.22228 -0.96 0
4.29265 -0.96 0
4.36302 -0.96 0
4.43339 -0.96 0
4.50377 -0.96 0
4.57414 -0.96 0
4.64451 -0.96 0
4.71488 -0.96 0
4.78525 -0.96 0
4.85562 -0.96 0
4.92599 -0.96 0
4.99636 -0.96 0
5.06674 -0.96 0
5.13711 -0.96 0
5.20748 -0.96 0
5.27785 -0.96 0
5.34822 -0.96 0
5.41859 -0.96 0
5.48896 -0.96 0
5.55934 -0.96 0
5.62971 -0.96 0
5.70008 -0.96 0
5.77045 -0.96 0
5.84082 -0.96 0
5.91119 -0.96 0
5.98156 -0.96 0
6.05193 -0.96 0
6.12231 -0.950812 0
6.19268 -0.941625 0
6.26305 -0.932437 0
6.33342 -0.92325 0
6.40379 -0.914062 0
6.47416 -0.904875 0
6.54453 -0.895687 0
6.61491 -0.8865 0
6.68528 -0.877312 0
6.75565 -0.868125 0
6.82602 -0.858937 0
6.89639 -0.84975 0
6.96676 -0.840562 0
7.03713 -0.831375 0
7.1075 -0.822187 0
7.17788 -0.813 0
7.24825 -0.803812 0
7.31862 -0.794625 0
7.38899 -0.785437 0
7.45936 -0.77625 0
7.52973 -0.767062 0
7.6001 -0.757875 0
7.67048 -0.748687 0
7.74085 -0.7395 0
7.81122 -0.730312 0
7.88159 -0.721125 0
7.95196 -0.711937 0
8.02233 -0.70275 0
8.0927 -0.693562 0
8.16307 -0.684375 0
8.23345 -0.675187 0
8.30382 -0.666 0
8.37419 -0.656812 0
8.44456 -0.647625 0
8.51493 -0.638437 0
8.5853 -0.62925 0
8.65567 -0.620062 0
8.72605 -0.610875 0
8.79642 -0.601687 0
8.86679 -0.5925 0
8.93716 -0.583312 0
9.00753 -0.574125 0
9.0779 -0.564937 0
9.14827 -0.55575 0
9.21864 -0.546562 0
9.28902 -0.537374 0
9.35939 -0.528187 0
9.42976 -0.518999 0
9.50013 -0.509812 0
9.5705 -0.500624 0
9.64087 -0.491437 0
9.71124 -0.482249 0
9.78162 -0.473062 0
9.85199 -0.463874 0
9.92236 -0.454687 0
9.99273 -0.445499 0
10.0631 -0.436312 0
10.1335 -0.427124 0
10.2038 -0.417937 0
10.2742 -0.408749 0
10.3446 -0.399562 0
10.415 -0.390374 0
10.4853 -0.381187 0
10.5557 -0.371999 0
0 0.04 0
0.0703713 0.04 0
0.140743 0.04 0
0.211114 0.04 0
0.281485 0.04 0
0.351857 0.04 0
0.422228 0.04 0
0.492599 0.04 0
0.562971 0.04 0
0.633342 0.04 0
0.703713 0.04 0
0.774085 0.04 0
0.844456 0.04 0
0.914827 0.04 0
0.985199 0.04 0
1.05557 0.04 0
1.12594 0.04 0
1.19631 0.04 0
1.26668 0.04 0
1.33706 0.04 0
1.40743 0.04 0
1.4778 0.04 0
1.54817 0.04 0
1.61854 0.04 0
1.68891 0.04 0
1.75928 0.04 0
1.82965 0.04 0
1.90003 0.04 0
1.9704 0.04 0
2.04077 0.0384003 0
2.11114 0.0279877 0
2.18151 0.00724739 0
2.25188 -0.0253676 0
2.32225 -0.0730079 0
2.39263 -0.129693 0
2.463 -0.186379 0
2.53337 -0.243065 0
2.60374 -0.29975 0
2.67411 -0.356436 0
2.74448 -0.413121 0
2.81485 -0.469807 0
2.88522 -0.526493 0
2.9556 -0.583178 0
3.02597 -0.639864 0
3.09634 -0.696549 0
3.16671 -0.753235 0
3.23708 -0.809904 0
3.30745 -0.856648 0
3.37782 -0.888592 0
3.4482 -0.90877 0
3.51857 -0.918673 0
3.58894 -0.92 0
3.65931 -0.92 0
3.72968 -0.92 0
3.80005 -0.92 0
3.87042 -0.92 0
3.94079 -0.92 0
4.01117 -0.92 0
4.08154 -0.92 0
4.15191 -0.92 0
4.22228 -0.92 0
4.29265 -0.92 0
4.36302 -0.92 0
4.43339 -0.92 0
4.50377 -0.92 0
4.57414 -0.92 0
4.64451 -0.92 0
4.71488 -0.92 0
4.78525 -0.92 0
4.85562 -0.92 0
4.92599 -0.92 0
4.99636 -0.92 0
5.06674 -0.92 0
5.13711 -0.92 0
5.20748 -0.92 0
5.27785 -0.92 0
5.34822 -0.92 0
5.41859 -0.92 0
5.48896 -0.92 0
5.55934 -0.92 0
5.62971 -0.92 0
5.70008 -0.92 0
5.77045 -0.92 0
5.84082 -0.92 0
5.91119 -0.92 0
5.98156 -0.92 0
6.05193 -0.92 0
6.12231 -0.911 0
6.19268 -0.902 0
6.26305 -0.893 0
6.33342 -0.884 0
6.40379 -0.875 0
6.47416 -0.866 0
6.54453 -0.857 0
6.61491 -0.848 0
6.68528 -0.839 0
6.75565 -0.83 0
6.82602 -0.821 0
6.89639 -0.812 0
6.96676 -0.803 0
7.03713 -0.794 0
7.1075 -0.785 0
7.17788 -0.776 0
7.24825 -0.767 0
7.31862 -0.758 0
7.38899 -0.749 0
7.45936 -0.74 0
7.52973 -0.731 0
7.6001 -0.722 0
7.67048 -0.713 0
7.74085 -0.704 0
7.81122 -0.695 0
7.88159 -0.686 0
7.95196 -0.677 0
8.02233 -0.668 0
8.0927 -0.659 0
8.16307 -0.65 0
8.23345 -0.641 0
8.30382 -0.632 0
8.37419 -0.623 0
8.44456 -0.614 0
8.51493 -0.605 0
8.5853 -0.596 0
8.65567 -0.587 0
8.72605 -0.578 0
8.79642 -0.569 0
8.86679 -0.56 0
8.93716 -0.551 0
9.00753 -0.542 0
9.0779 -0.533 0
9.14827 -0.524 0
9.21864 -0.515 0
9.28902 -0.506 0
9.35939 -0.496999 0
9.42976 -0.487999 0
9.50013 -0.478999 0
9.5705 -0.469999 0
9.64087 -0.460999 0
9.71124 -0.451999 0
9.78162 -0.442999 0
9.85199 -0.433999 0
9.92236 -0.424999 0
9.99273 -0.415999 0
10.0631 -0.406999 0
10.1335 -0.397999 0
10.2038 -0.388999 0
10.2742 -0.379999 0
10.3446 -0.370999 0
10.415 -0.361999 0
10.4853 -0.352999 0
10.5557 -0.343999 0
0 0.06 0
0.0703713 0.06 0
0.140743 0.06 0
0.211114 0.06 0
0.281485 0.06 0
0.351857 0.06 0
0.422228 0.06 0
0.492599 0.06 0
0.562971 0.06 0
0.633342 0.06 0
0.703713 0.06 0
0.774085 0.06 0
0.844456 0.06 0
0.914827 0.06 0
0.985199 0.06 0
1.05557 0.06 0
1.12594 0.06 0
1.19631 0.06 0
1.26668 0.06 0
1.33706 0.06 0
1.40743 0.06 0
1.4778 0.06 0
1.54817 0.06 0
1.61854 0.06 0
1.68891 0.06 0
1.75928 0.06 0
1.82965 0.06 0
1.90003 0.06 0
1.9704 0.06 0
2.04077 0.0584336 0
2.11114 0.048238 0
2.18151 0.0279297 0
2.25188 -0.00400573 0
2.32225 -0.0506536 0
2.39263 -0.106158 0
2.463 -0.161663 0
2.53337 -0.217167 0
2.60374 -0.272672 0
2.67411 -0.328177 0
2.74448 -0.383681 0
2.81485 -0.439186 0
2.88522 -0.494691 0
2.9556 -0.550195 0
3.02597 -0.6057 0
3.09634 -0.661204 0
3.16671 -0.716709 0
3.23708 -0.772198 0
3.30745 -0.817968 0
3.37782 -0.849246 0
3.4482 -0.869004 0
3.51857 -0.878701 0
3.58894 -0.88 0
3.65931 -0.88 0
3.72968 -0.88 0
3.80005 -0.88 0
3.87042 -0.88 0
3.94079 -0.88 0
4.01117 -0.88 0
4.08154 -0.88 0
4.15191 -0.88 0
4.22228 -0.88 0
4.29265 -0.88 0
4.36302 -0.88 0
4.43339 -0.88 0
4.50377 -0.88 0
4.57414 -0.88 0
4.64451 -0.88 0
4.71488 -0.88 0
4.78525 -0.88 0
4.85562 -0.88 0
4.92599 -0.88 0
4.99636 -0.88 0
5.06674 -0.88 0
5.13711 -0.88 0
5.20748 -0.88 0
5.27785 -0.88 0
5.34822 -0.88 0
5.41859 -0.88 0
5.48896 -0.88 0
5.55934 -0.88 0
5.62971 -0.88 0
5.70008 -0.88 0
5.77045 -0.88 0
5.84082 -0.88 0
5.91119 -0.88 0
5.98156 -0.88 0
6.05193 -0.88 0
6.12231 -0.871187 0
6.19268 -0.862375 0
6.26305 -0.853562 0
6.33342 -0.84475 0
6.40379 -0.835937 0
6.47416 -0.827125 0
6.54453 -0.818312 0
6.61491 -0.8095 0
6.68528 -0.800687 0
6.75565 -0.791875 0
6.82602 -0.783062 0
6.89639 -0.77425 0
6.96676 -0.765437 0
7.03713 -0.756625 0
7.1075 -0.747812 0
7.17788 -0.739 0
7.24825 -0.730187 0
7.31862 -0.721375 0
7.38899 -0.712562 0
7.45936 -0.70375 0
7.52973 -0.694937 0
7.6001 -0.686125 0
7.67048 -0.677312 0
7.74085 -0.6685 0
7.81122 -0.659687 0
7.88159 -0.650875 0
7.95196 -0.642062 0
8.02233 -0.63325 0
8.0927 -0.624437 0
8.16307 -0.615625 0
8.23345 -0.606812 0
8.30382 -0.598 0
8.37419 -0.589187 0
[...]
POINT_DATA 7701
SCALARS pressure float 1
LOOKUP_TABLE default
0.160884
0.155651
0.153447
0.153802
0.156644
0.161277
0.16695
0.172993
0.178922
0.184458
0.189476
0.193909
0.197663
0.200601
0.202589
0.203575
0.203626
0.202891
0.20155
0.199766
0.19767
0.195362
0.192915
0.190393
0.18784
0.185298
0.182779
0.180351
0.178033
0.177155
0.17689
0.177323
0.178245
0.17769
0.176361
0.175563
0.174859
0.174316
0.173856
0.173475
0.173151
0.172872
0.172623
0.17239
0.172145
0.171876
0.171431
0.171099
0.17087
0.170655
0.170421
0.170314
0.170201
0.170094
0.169983
0.169873
0.169766
0.169662
0.169562
0.169467
0.169376
0.16929
0.169207
0.169127
0.169048
0.168969
0.168888
0.168805
0.168717
0.168622
0.168518
0.168405
0.168279
0.168139
0.167984
0.167811
0.16762
0.167408
0.167175
0.16692
0.166642
0.166338
0.166018
0.165651
0.165331
0.164834
0.165029
0.164511
0.164074
0.163528
0.162949
0.16231
0.16162
0.160873
0.160068
0.159203
0.158276
0.157284
0.156226
0.155099
0.1539
0.152629
0.151282
0.149859
0.148356
0.146773
0.145108
0.14336
0.141527
0.139608
0.137603
0.13551
0.133331
0.131064
0.128709
0.126268
0.123741
0.121128
0.118432
0.115652
0.112792
0.109853
0.106837
0.103747
0.100585
0.0973543
0.094058
0.0906991
0.0872811
0.0838075
0.0802818
0.0767077
0.0730887
0.0694285
0.0657304
0.0619981
0.0582338
0.0544417
0.0506216
0.0467793
0.042909
0.0390228
0.0350994
0.0311717
0.0271751
0.02321
0.0190774
0.0151099
0.0106123
0.00681025
0
0.161593
0.156572
0.154752
0.155303
0.158193
0.162743
0.168245
0.174069
0.179762
0.185068
0.189869
0.194108
0.197701
0.200523
0.202451
0.203432
0.203517
0.202837
0.201555
0.199823
0.197768
0.195488
0.193063
0.190554
0.188011
0.185481
0.182984
0.180612
0.178343
0.177383
0.176916
0.177091
0.177924
0.17757
0.176382
0.175606
0.174908
0.174363
0.1739
0.173515
0.173186
0.172903
0.17265
0.172415
0.172173
0.171933
0.171515
0.171176
0.170936
0.17072
0.170485
0.170374
0.170249
0.170133
0.170016
0.169902
0.169789
0.169681
0.169577
0.169477
0.169381
0.169289
0.1692
0.169113
0.169027
0.168941
0.168854
0.168764
0.168668
0.168567
0.168456
0.168336
0.168204
0.168059
0.167898
0.16772
0.167524
0.167309
0.167073
0.166815
0.166536
0.166232
0.165916
0.165553
0.165252
0.164751
0.164841
0.164284
0.163852
0.163298
0.162713
0.162066
0.161368
0.160612
0.159799
0.158925
0.157988
0.156987
0.15592
0.154783
0.153576
0.152296
0.15094
0.149508
0.147997
0.146406
0.144733
0.142977
0.141136
0.13921
0.137198
0.1351
0.132914
0.130642
0.128283
0.125838
0.123306
0.120691
0.117991
0.11521
0.112348
0.109408
0.106391
0.103301
0.10014
0.0969108
0.0936162
0.0902597
0.0868445
0.0833742
0.0798522
0.0762822
0.0726676
0.0690121
0.0653187
0.0615913
0.0578318
0.0540443
0.0502284
0.0463902
0.0425226
0.038639
0.0347154
0.0307881
0.0267853
0.0228174
0.0186627
0.0146864
0.0101197
0.00634636
0
0.162003
0.15716
0.155617
0.156374
0.159365
0.163913
0.169329
0.175007
0.180524
0.185644
0.190265
0.194343
0.197805
0.200536
0.202415
0.203387
0.20349
0.202845
0.2016
0.199902
0.197874
0.195613
0.193199
0.190697
0.188159
0.185636
0.183154
0.180814
0.178574
0.177555
0.17695
0.176931
0.177655
0.177435
0.176369
0.175626
0.174939
0.174396
0.173932
0.173545
0.173213
0.172926
0.17267
0.172436
0.172194
0.171973
0.171573
0.171231
0.170984
0.170764
0.170526
0.170412
0.17028
0.17016
0.170038
0.16992
0.169804
0.169693
0.169585
0.169482
0.169382
0.169286
0.169193
0.169103
0.169013
0.168923
0.168831
0.168737
0.168637
0.168531
0.168417
0.168293
0.168158
0.168009
0.167845
0.167664
0.167466
0.167248
0.16701
0.16675
0.166471
0.166166
0.165851
0.165489
0.16519
0.16469
0.164716
0.16415
0.163714
0.163153
0.162564
0.161911
0.161207
0.160445
0.159625
0.158745
0.157802
0.156795
0.155721
0.154578
0.153364
0.152077
0.150715
0.149277
0.147759
0.146162
0.144482
0.14272
0.140874
0.138942
0.136925
0.134821
0.132631
0.130354
0.12799
0.12554
0.123005
0.120386
0.117683
0.114899
0.112035
0.109092
0.106074
0.102983
0.0998208
0.0965908
0.0932961
0.0899398
0.0865252
0.0830558
0.0795351
0.0759667
0.0723539
0.0687006
0.0650095
0.0612846
0.0575275
0.0537427
0.0499291
0.0460932
0.0422271
0.0383454
0.0344214
0.0304954
0.0264876
0.0225211
0.0183514
0.0143812
0.00978929
0.00606998
0
0.162105
0.157469
0.156192
0.157201
0.160359
0.164977
0.170368
0.175946
0.181314
0.186262
0.190711
0.194632
0.19797
0.200614
0.202447
0.203406
0.203521
0.202899
0.201682
0.200009
0.198
0.195752
0.193345
0.190845
0.188309
0.18579
0.183318
0.181
0.178781
0.177709
0.176987
0.176801
0.177409
0.177285
0.176332
0.17563
0.174961
0.174423
0.17396
0.173571
0.173237
0.172948
0.17269
0.172458
0.172217
0.172014
0.171632
0.171287
0.171035
0.170811
0.170568
0.170452
0.170314
0.170189
0.170062
0.16994
0.16982
0.169705
0.169593
0.169486
0.169383
0.169283
0.169186
0.169091
0.168997
0.168902
0.168807
0.168708
0.168604
0.168494
0.168376
0.168248
0.168109
0.167956
0.167789
0.167605
0.167404
0.167184
0.166944
0.166682
0.166402
0.166096
0.165782
0.16542
0.165119
0.164621
0.164586
0.164014
0.16357
0.163003
0.162407
0.161748
0.161038
0.16027
0.159444
0.158557
0.157608
0.156594
0.155513
0.154363
0.153142
0.151849
0.15048
0.149035
0.147511
0.145907
0.144221
0.142452
0.1406
0.138662
0.136639
0.13453
0.132334
0.130052
0.127683
0.125229
0.12269
0.120067
0.11736
0.114573
0.111706
0.108761
0.105741
0.102648
0.0994845
0.0962537
0.0929586
0.0896023
0.0861881
0.0827195
0.0792
0.0756331
0.0720222
0.068371
0.0646823
0.06096
0.0572057
0.0534238
0.0496129
0.0457801
0.0419161
0.0380375
0.0341138
0.0301912
0.02618
0.0222189
0.0180382
0.0140835
0.00948398
0.00583074
0
0.161757
0.157369
0.156362
0.157682
0.161086
0.165859
0.171303
0.176842
0.182103
0.186904
0.191196
0.194973
0.198195
0.20076
0.202549
0.203492
0.20361
0.203002
0.201802
0.200144
0.198146
0.195903
0.193497
0.190995
0.188456
0.185937
0.183471
0.181167
0.178964
0.177844
0.177025
0.176701
0.177189
0.177129
0.176276
0.175619
0.174972
0.174441
0.173981
0.173592
0.173257
0.172967
0.172708
0.172477
0.172238
0.172049
0.171683
0.171338
0.171082
0.170853
0.170607
0.170488
0.170344
0.170214
0.170083
0.169957
0.169833
0.169714
0.169599
0.169488
0.169382
0.169278
0.169177
0.169079
0.168981
0.168883
0.168783
0.168681
0.168573
0.16846
0.168338
0.168207
0.168065
0.167909
0.167739
0.167553
0.16735
0.167127
0.166886
0.166623
0.166341
0.166034
0.165719
0.165356
0.165049
0.164555
0.164468
0.163896
0.163442
0.162869
0.162267
0.161603
0.160887
0.160113
0.15928
0.158387
0.157432
0.156412
0.155324
0.154168
0.152941
0.151641
0.150266
0.148814
0.147284
0.145673
0.143981
0.142206
0.140347
0.138404
0.136375
0.13426
0.132058
0.129771
0.127397
0.124938
0.122394
0.119766
0.117056
0.114265
0.111394
0.108446
0.105423
0.102328
0.0991626
0.0959302
0.0926339
0.0892768
0.0858622
0.0823937
0.0788746
0.0753085
0.0716988
0.0680492
0.0643624
0.0606424
0.0568905
0.0531115
0.0493032
0.0454738
0.0416123
0.0377376
0.0338154
0.0298981
0.0258857
0.0219343
0.0177485
0.0138185
0.00922643
0.00564268
0
0.160828
0.156736
0.156031
0.157731
0.161474
0.166504
0.172094
0.177669
0.182875
0.187563
0.191717
0.195362
0.198479
0.200972
0.20272
0.203643
0.203757
0.203152
0.201958
0.200307
0.198311
0.196067
0.193655
0.191147
0.188601
0.186077
0.183612
0.181316
0.179125
0.177963
0.177065
0.176625
0.176994
0.176971
0.176206
0.175594
0.174972
0.174452
0.173997
0.173609
0.173274
0.172983
0.172723
0.172494
0.172257
0.17208
0.171728
0.171385
0.171125
0.170893
0.170643
0.170521
0.170372
0.170238
0.170102
0.169972
0.169845
0.169722
0.169603
0.169489
0.169379
0.169272
0.169168
0.169066
0.168964
0.168863
0.16876
0.168654
0.168544
0.168427
0.168303
0.168169
0.168023
0.167865
0.167693
0.167504
0.167299
0.167074
0.166831
0.166566
0.166283
0.165975
0.165658
0.165294
0.164979
0.164489
0.164356
0.163786
0.163321
0.162742
0.162135
0.161465
0.160743
0.159963
0.159125
0.158226
0.157264
0.156238
0.155144
0.153982
0.152748
0.151442
0.15006
0.148602
0.147065
0.145448
0.14375
0.141969
0.140103
0.138154
0.136118
0.133997
0.13179
0.129497
0.127118
0.124653
0.122104
0.119472
0.116757
0.113961
0.111087
0.108135
0.105109
0.102011
0.0988432
0.0956088
0.0923107
0.0889523
0.0855369
0.082068
0.0785489
0.0749833
0.0713745
0.0677262
0.0640411
0.0603233
0.0565739
0.0527979
0.0489927
0.0451673
0.0413092
0.0374398
0.0335206
0.029611
0.0256003
0.021663
0.017478
0.0135806
0.00900592
0.00549203
0
0.159187
0.155445
0.155086
0.157247
0.161438
0.166843
0.17269
0.178391
0.183609
0.188226
0.19227
0.195801
0.198822
0.20125
0.202958
0.203859
0.20396
0.203349
0.202152
0.200497
0.198495
0.196242
0.193819
0.191299
0.188741
0.186209
0.183742
0.181448
0.179266
0.178067
0.177104
0.17657
0.176824
0.176817
0.176125
0.175556
0.174962
0.174456
0.174007
0.173621
0.173286
0.172995
0.172735
0.172508
0.172273
0.172106
0.171768
0.171426
0.171165
0.170929
0.170677
0.170551
0.170398
0.170259
0.170119
0.169985
0.169854
0.169727
0.169605
0.169488
0.169374
0.169264
0.169157
0.169051
0.168947
0.168843
0.168737
0.168628
0.168515
0.168395
0.168268
0.168132
0.167984
0.167824
0.167649
0.167459
0.167251
0.167025
0.16678
0.166513
0.166228
0.165919
0.165599
0.165234
0.16491
0.164424
0.16425
0.163682
0.163206
0.162623
0.162009
0.161334
0.160606
0.15982
0.158976
0.158072
0.157104
0.156072
0.154972
0.153803
0.152564
0.151251
0.149863
0.148398
0.146855
0.145231
0.143526
0.141739
0.139867
0.137911
0.135869
0.133742
0.131528
0.129229
0.126844
0.124374
0.12182
0.119182
0.116462
0.113662
0.110783
0.107828
0.104798
0.101696
0.0985251
0.095288
0.0919878
0.0886277
0.0852109
0.0817411
0.0782216
0.0746561
0.0710479
0.0674008
0.0637174
0.0600018
0.056255
0.0524824
0.0486808
0.0448603
0.0410065
0.0371439
0.0332295
0.0293304
0.0253245
0.0214059
0.0172273
0.0133686
0.00881816
0.00537306
0
0.156712
0.153369
0.153415
0.156128
0.160887
0.166799
0.173032
0.178968
0.184279
0.188882
0.19285
0.196286
0.199225
0.201594
0.203263
0.204139
0.204221
0.203594
0.202383
0.200715
0.198698
0.196429
0.193988
0.191449
0.188875
0.186331
0.183858
0.181563
0.17939
0.178156
0.177141
0.17653
0.176677
0.176668
0.176037
0.175509
0.174943
0.174451
0.17401
0.173628
0.173294
0.173004
0.172744
0.172518
0.172286
0.172127
0.171801
0.171462
0.1712
0.170961
0.170707
0.170577
0.17042
0.170277
0.170133
0.169995
0.16986
0.16973
0.169605
0.169484
0.169367
0.169254
0.169144
0.169036
0.168929
0.168822
0.168713
0.168602
0.168486
0.168364
0.168235
0.168096
0.167946
0.167784
0.167607
0.167415
0.167205
0.166977
0.16673
0.166462
0.166175
0.165863
0.16554
0.165173
0.164841
0.164358
0.164149
0.163583
0.163096
0.162508
0.161888
0.161206
0.160473
0.159682
0.158832
0.157922
0.156948
0.15591
0.154804
0.153629
0.152383
0.151064
0.14967
0.148199
0.146649
0.145019
0.143307
0.141513
0.139634
0.137671
0.135623
0.133489
0.131269
0.128964
0.126573
0.124096
0.121536
0.118893
0.116168
0.113362
0.110479
0.107519
0.104484
0.101379
0.0982046
0.0949644
0.0916616
0.0882992
0.0848808
0.0814097
0.0778896
0.074324
0.0707162
0.0670701
0.0633883
0.0596752
0.0559313
0.0521627
0.0483653
0.0445506
0.0407024
0.0368483
0.0329408
0.0290549
0.0250571
0.0211614
0.0169945
0.0131795
0.00865753
0.00527998
0
0.153286
0.150387
0.150906
0.154267
0.159725
0.166292
0.173056
0.179355
0.184857
0.189514
0.193449
0.196817
0.199687
0.202003
0.203636
0.204482
0.204538
0.203886
0.202651
0.200959
0.198919
0.196625
0.19416
0.191597
0.189002
0.186442
0.18396
0.181662
0.179497
0.178231
0.177173
0.176501
0.17655
0.176528
0.175945
0.175453
0.174916
0.17444
0.174008
0.17363
0.173299
0.173009
0.172749
0.172525
0.172294
0.172142
0.171827
0.171492
0.17123
0.170989
0.170734
0.1706
0.170438
0.170291
0.170143
0.170001
0.169863
0.16973
0.169601
0.169478
0.169358
0.169242
0.169129
0.169018
0.168909
0.168799
0.168688
0.168575
0.168457
0.168333
0.168201
0.16806
0.167909
0.167744
0.167566
0.167371
0.16716
0.16693
0.166681
0.166412
0.166122
0.165808
0.165482
0.165112
0.164771
0.16429
0.16405
0.163485
0.162988
0.162395
0.161768
0.161081
0.160342
0.159546
0.15869
0.157774
0.156795
0.15575
0.154638
0.153457
0.152205
0.15088
0.149479
0.148001
0.146444
0.144807
0.143089
0.141287
0.139402
0.137432
0.135377
0.133236
0.13101
0.128698
0.1263
0.123817
0.121251
0.118601
0.115871
0.11306
0.110171
0.107206
0.104167
0.101057
0.0978789
0.0946352
0.0913293
0.0879644
0.0845439
0.0810714
0.0775503
0.0739844
0.0703769
0.0667319
0.0630519
0.0593413
0.0556008
0.0518367
0.0480444
0.0442365
0.0403953
0.0365515
0.032653
0.028783
0.0247968
0.0209279
0.0167774
0.0130099
0.00851896
0.00520797
0
0.148804
0.146388
0.147452
0.151562
0.157857
0.165239
0.172695
0.179501
0.18531
0.190104
0.19406
0.19739
0.200208
0.202479
0.204075
0.204888
0.20491
0.204224
0.202955
0.20123
0.199157
0.19683
0.194333
0.19174
0.189119
0.186539
0.184047
0.181743
0.179587
0.178293
0.177201
0.17648
0.176439
0.176395
0.175852
0.175392
0.174882
0.174422
0.174
0.173628
0.173298
0.17301
0.17275
0.172528
0.172299
0.172151
0.171847
0.171517
0.171255
0.171012
0.170757
0.170618
0.170453
0.170302
0.17015
0.170005
0.169863
0.169727
0.169595
0.169468
0.169346
0.169227
0.169112
0.168999
0.168887
0.168775
0.168662
0.168546
0.168426
0.1683
0.168167
0.168024
0.167871
0.167705
0.167524
0.167328
0.167115
0.166883
0.166632
0.166361
0.166069
0.165753
0.165422
0.16505
0.1647
0.16422
0.163953
0.163388
0.16288
0.162282
0.161649
0.160957
0.160212
0.159409
0.158548
0.157626
0.156641
0.15559
0.154472
0.153285
0.152027
0.150694
0.149287
0.147802
0.146238
0.144595
0.142869
0.141061
0.139168
0.137191
0.135129
0.132981
0.130747
0.128428
0.126023
0.123534
0.120961
0.118305
0.115568
0.112751
0.109857
0.106886
0.103842
0.100728
0.0975454
0.0942979
0.0909886
0.0876209
0.084198
0.0807237
0.0772015
0.0736352
0.070028
0.0663841
0.062706
0.0589983
0.0552615
0.0515026
0.0477163
0.0439164
0.0400836
0.0362519
0.0323646
0.0285132
0.0245419
0.0207031
0.0165733
0.0128559
0.00839768
0.00515268
0
0.14317
0.141269
0.142953
0.147917
0.155191
0.163555
0.171879
0.179354
0.185603
0.190631
0.194671
0.198001
0.200787
0.203021
0.204581
0.205357
0.205337
0.204607
0.203294
0.201525
0.19941
0.197042
0.194505
0.191877
0.189226
0.186622
0.184117
0.181807
0.17966
0.17834
0.177221
0.176462
0.176342
0.176271
0.175759
0.175326
0.174841
0.174398
0.173987
0.17362
0.173294
0.173007
0.172748
0.172526
0.172299
0.172154
0.17186
0.171535
0.171274
0.171031
0.170776
0.170632
0.170464
0.170309
0.170153
0.170004
0.169859
0.16972
0.169585
0.169456
0.169331
0.16921
0.169092
0.168977
0.168863
0.168749
0.168634
0.168516
0.168395
0.168267
0.168132
0.167988
0.167832
0.167664
0.167482
0.167284
0.167069
0.166836
0.166583
0.166308
0.166014
0.165695
0.165361
0.164985
0.164627
0.164147
0.163856
0.16329
0.162772
0.162169
0.161529
0.160831
0.16008
0.159272
0.158405
0.157477
0.156485
0.155429
0.154305
0.153111
0.151846
0.150507
0.149092
0.147601
0.14603
0.144379
0.142646
0.14083
0.13893
0.136946
0.134876
0.132721
0.130479
0.128153
0.125741
0.123245
0.120664
0.118002
0.115258
0.112435
0.109534
0.106558
0.103509
0.100389
0.0972022
0.0939505
0.0906375
0.0872665
0.0838411
0.0803649
0.0768414
0.0732745
0.0696676
0.0660249
0.0623489
0.0586445
0.054912
0.0511588
0.0473793
0.0435886
0.0397657
0.0359477
0.032074
0.0282437
0.0242903
0.0204847
0.0163791
0.0127139
0.00828946
0.00511017
0
0.136303
0.134942
0.13732
0.143243
0.15164
0.161161
0.170538
0.178858
0.185696
0.19107
0.19527
0.198645
0.201421
0.203627
0.205152
0.205886
0.205817
0.205034
0.203667
0.201843
0.199676
0.197259
0.194676
0.192005
0.189319
0.186689
0.184168
0.181852
0.179714
0.178371
0.177231
0.176444
0.176255
0.176155
0.175668
0.175257
0.174796
0.174369
0.173969
0.173608
0.173285
0.173
0.172741
0.17252
0.172295
0.172151
0.171866
0.171548
0.171288
0.171045
0.170791
0.170642
0.17047
0.170311
0.170152
0.17
0.169852
0.16971
0.169572
0.16944
0.169313
0.169189
0.16907
0.168952
0.168836
0.168721
0.168604
0.168485
0.168361
0.168232
0.168095
0.167949
0.167792
0.167623
0.167439
0.167239
0.167022
0.166786
0.166531
0.166254
0.165957
0.165635
0.165296
0.164917
0.16455
0.164071
0.163757
0.16319
0.162662
0.162053
0.161407
0.160702
0.159945
0.159131
0.158258
0.157324
0.156326
0.155264
0.154133
0.152933
0.151661
0.150315
0.148893
0.147394
0.145816
0.144158
0.142417
0.140594
0.138686
0.136694
0.134616
0.132453
0.130204
0.12787
0.125451
0.122947
0.120359
0.11769
0.114939
0.112109
0.109202
0.10622
0.103165
0.10004
0.0968475
0.0935913
0.0902743
0.0868999
0.0834717
0.0799933
0.0764684
0.0729009
0.0692943
0.0656529
0.0619792
0.0582784
0.0545506
0.050804
0.0470322
0.0432517
0.0394401
0.0356376
0.0317796
0.0279725
0.0240401
0.0202701
0.0161921
0.0125802
0.00819052
0.00507692
0
0.12813
0.127329
0.130475
0.137463
0.147128
0.157982
0.168605
0.177959
0.18555
0.191395
0.195841
0.199313
0.202106
0.204295
0.205786
0.206474
0.206349
0.205503
0.20407
0.202183
0.199954
0.197478
0.194841
0.192122
0.189396
0.186738
0.1842
0.181877
0.179749
0.178385
0.177231
0.176423
0.176175
0.176045
0.175578
0.175186
0.174747
0.174336
0.173946
0.173593
0.173273
0.172989
0.172731
0.17251
0.172286
0.172143
0.171867
0.171554
0.171297
0.171053
0.170801
0.170647
0.170472
0.17031
0.170147
0.169992
0.169841
0.169696
0.169556
0.169421
0.169292
0.169166
0.169044
0.168925
0.168807
0.16869
0.168572
0.168451
0.168326
0.168195
0.168057
0.167909
0.16775
0.167579
0.167393
0.167191
0.166972
0.166734
0.166477
0.166197
0.165897
0.165572
0.165228
0.164845
0.164471
0.16399
0.163656
0.163086
0.162549
0.161934
0.161281
0.16057
0.159807
0.158987
0.158107
0.157167
0.156163
0.155094
0.153957
0.15275
0.151471
0.150118
0.148689
0.147183
0.145597
0.143931
0.142182
0.140351
0.138435
0.136435
0.134349
0.132178
0.129921
0.127579
0.125151
0.122639
0.120044
0.117367
0.114609
0.111772
0.108858
0.105869
0.102808
0.0996776
0.0964802
0.0932192
0.0898979
0.0865199
0.0830886
0.0796079
0.0760815
0.0725134
0.0689071
0.0652671
0.0615958
0.057899
0.0541765
0.0504369
0.0466737
0.0429045
0.0391056
0.0353201
0.0314797
0.0276979
0.0237892
0.0200568
0.0160092
0.0124517
0.00809765
0.00504976
0
0.118594
0.118367
0.122353
0.130509
0.141586
0.153949
0.166016
0.176601
0.185121
0.191578
0.196367
0.199995
0.202837
0.20502
0.20648
0.207117
0.206928
0.20601
0.204502
0.202541
0.20024
0.197697
0.194998
0.192226
0.189456
0.186766
0.184211
0.18188
0.179764
0.178382
0.177218
0.176396
0.176098
0.17594
0.17549
0.175114
0.174695
0.174298
0.17392
0.173573
0.173257
0.172975
0.172717
0.172497
0.172273
0.17213
0.171861
0.171555
0.1713
0.171057
0.170806
0.170648
0.170469
0.170304
0.170138
0.16998
0.169826
0.169678
0.169536
0.169399
0.169267
0.16914
0.169016
0.168895
0.168776
0.168657
0.168537
0.168415
0.168288
0.168156
0.168016
0.167867
0.167706
0.167533
0.167345
0.167142
0.16692
0.16668
0.16642
0.166137
0.165834
0.165505
0.165157
0.164769
0.164387
0.163904
0.163552
0.162979
0.162433
0.161811
0.161151
0.160434
0.159664
0.158838
0.157952
0.157005
0.155995
0.154919
0.153775
0.152561
0.151275
0.149915
0.148478
0.146964
0.145371
0.143696
0.14194
0.1401
0.138176
0.136167
0.134073
0.131893
0.129628
0.127277
0.124842
0.122322
0.119718
0.117033
0.114268
0.111423
0.108502
0.105507
0.102439
0.0993024
0.0960994
0.0928333
0.0895075
0.0861256
0.0826911
0.0792079
0.0756799
0.0721111
0.0685051
0.0648666
0.0611981
0.0575055
0.0537887
0.0500568
0.046303
0.042546
0.0387611
0.0349939
0.0311731
0.0274182
0.0235358
0.0198425
0.0158281
0.0123253
0.00800811
0.00502593
0
0.107646
0.108006
0.112901
0.122328
0.134956
0.149004
0.162712
0.174732
0.184367
0.191587
0.196828
0.20068
0.203606
0.205799
0.207229
0.207812
0.207552
0.206553
0.20496
0.202914
0.200532
0.197913
0.195145
0.192313
0.189496
0.186771
0.184198
0.181861
0.179757
0.178359
0.177191
0.176361
0.176021
0.175838
0.175403
0.17504
0.17464
0.174258
0.17389
0.17355
0.173238
0.172957
0.1727
0.172479
0.172256
0.172111
0.171849
0.17155
0.171297
0.171055
0.170807
0.170644
0.170462
0.170293
0.170125
0.169964
0.169807
0.169657
0.169512
0.169373
0.169239
0.16911
0.168985
0.168862
0.168742
0.168621
0.1685
0.168376
0.168248
0.168115
0.167973
0.167822
0.16766
0.167485
0.167295
0.167089
0.166865
0.166622
0.166359
0.166074
0.165767
0.165433
0.165081
0.164689
0.164298
0.163814
0.163444
0.162867
0.162311
0.161683
0.161016
0.160293
0.159517
0.158683
0.157791
0.156838
0.155821