# vtk DataFile Version 2.0
insac_ib
ASCII
DATASET STRUCTURED_GRID
DIMENSIONS 151 51 1
POINTS 7701 float
0 0 0
0.0703713 0 0
0.140743 0 0
0.211114 0 0
0.281485 0 0
0.351857 0 0
0.422228 0 0
0.492599 0 0
0.562971 0 0
0.633342 0 0
0.703713 0 0
0.774085 0 0
0.844456 0 0
0.914827 0 0
0.985199 0 0
1.05557 0 0
1.12594 0 0
1.19631 0 0
1.26668 0 0
1.33706 0 0
1.40743 0 0
1.4778 0 0
1.54817 0 0
1.61854 0 0
1.68891 0 0
1.75928 0 0
1.82965 0 0
1.90003 0 0
1.9704 0 0
2.04077 -0.00166634 0
2.11114 -0.0125128 0
2.18151 -0.0341173 0
2.25188 -0.0680912 0
2.32225 -0.117717 0
2.39263 -0.176764 0
2.463 -0.235812 0
2.53337 -0.294859 0
2.60374 -0.353906 0
2.67411 -0.412954 0
2.74448 -0.472001 0
2.81485 -0.531049 0
2.88522 -0.590096 0
2.9556 -0.649144 0
3.02597 -0.708191 0
3.09634 -0.767239 0
3.16671 -0.826286 0
3.23708 -0.885317 0
3.30745 -0.934009 0
3.37782 -0.967283 0
3.4482 -0.988302 0
3.51857 -0.998618 0
3.58894 -1 0
3.65931 -1 0
3.72968 -1 0
3.80005 -1 0
3.87042 -1 0
3.94079 -1 0
4.01117 -1 0
4.08154 -1 0
4.15191 -1 0
4.22228 -1 0
4.29265 -1 0
4.36302 -1 0
4.43339 -1 0
4.50377 -1 0
4.57414 -1 0
4.64451 -1 0
4.71488 -1 0
4.78525 -1 0
4.85562 -1 0
4.92599 -1 0
4.99636 -1 0
5.06674 -1 0
5.13711 -1 0
5.20748 -1 0
5.27785 -1 0
5.34822 -1 0
5.41859 -1 0
5.48896 -1 0
5.55934 -1 0
5.62971 -1 0
5.70008 -1 0
5.77045 -1 0
5.84082 -1 0
5.91119 -1 0
5.98156 -1 0
6.05193 -1 0
6.12231 -0.990625 0
6.19268 -0.98125 0
6.26305 -0.971875 0
6.33342 -0.9625 0
6.40379 -0.953125 0
6.47416 -0.94375 0
6.54453 -0.934375 0
6.61491 -0.925 0
6.68528 -0.915625 0
6.75565 -0.90625 0
6.82602 -0.896875 0
6.89639 -0.8875 0
6.96676 -0.878125 0
7.03713 -0.86875 0
7.1075 -0.859375 0
7.17788 -0.85 0
7.24825 -0.840625 0
7.31862 -0.83125 0
7.38899 -0.821875 0
7.45936 -0.8125 0
7.52973 -0.803125 0
7.6001 -0.79375 0
7.67048 -0.784375 0
7.74085 -0.775 0
7.81122 -0.765625 0
7.88159 -0.75625 0
7.95196 -0.746875 0
8.02233 -0.7375 0
8.0927 -0.728125 0
8.16307 -0.71875 0
8.23345 -0.709375 0
8.30382 -0.7 0
8.37419 -0.690625 0
8.44456 -0.68125 0
8.51493 -0.671875 0
8.5853 -0.6625 0
8.65567 -0.653125 0
8.72605 -0.64375 0
8.79642 -0.634375 0
8.86679 -0.625 0
8.93716 -0.615625 0
9.00753 -0.60625 0
9.0779 -0.596875 0
9.14827 -0.5875 0
9.21864 -0.578125 0
9.28902 -0.568749 0
9.35939 -0.559374 0
9.42976 -0.549999 0
9.50013 -0.540624 0
9.5705 -0.531249 0
9.64087 -0.521874 0
9.71124 -0.512499 0
9.78162 -0.503124 0
9.85199 -0.493749 0
9.92236 -0.484374 0
9.99273 -0.474999 0
10.0631 -0.465624 0
10.1335 -0.456249 0
10.2038 -0.446874 0
10.2742 -0.437499 0
10.3446 -0.428124 0
10.415 -0.418749 0
10.4853 -0.409374 0
10.5557 -0.399999 0
0 0.02 0
0.0703713 0.02 0
0.140743 0.02 0
0.211114 0.02 0
0.281485 0.02 0
0.351857 0.02 0
0.422228 0.02 0
0.492599 0.02 0
0.562971 0.02 0
0.633342 0.02 0
0.703713 0.02 0
0.774085 0.02 0
0.844456 0.02 0
0.914827 0.02 0
0.985199 0.02 0
1.05557 0.02 0
1.12594 0.02 0
1.19631 0.02 0
1.26668 0.02 0
1.33706 0.02 0
1.40743 0.02 0
1.4778 0.02 0
1.54817 0.02 0
1.61854 0.02 0
1.68891 0.02 0
1.75928 0.02 0
1.82965 0.02 0
1.90003 0.02 0
1.9704 0.02 0
2.04077 0.018367 0
2.11114 0.00773744 0
2.18151 -0.013435 0
2.25188 -0.0467294 0
2.32225 -0.0953622 0
2.39263 -0.153229 0
2.463 -0.211095 0
2.53337 -0.268962 0
2.60374 -0.326828 0
2.67411 -0.384695 0
2.74448 -0.442561 0
2.81485 -0.500428 0
2.88522 -0.558294 0
2.9556 -0.616161 0
3.02597 -0.674028 0
3.09634 -0.731894 0
3.16671 -0.789761 0
3.23708 -0.847611 0
3.30745 -0.895328 0
3.37782 -0.927937 0
3.4482 -0.948536 0
3.51857 -0.958645 0
3.58894 -0.96 0
3.65931 -0.96 0
3.72968 -0.96 0
3.80005 -0.96 0
3.87042 -0.96 0
3.94079 -0.96 0
4.01117 -0.96 0
4.08154 -0.96 0
4.15191 -0.96 0
4.22228 -0.96 0
4.29265 -0.96 0
4.36302 -0.96 0
4.43339 -0.96 0
4.50377 -0.96 0
4.57414 -0.96 0
4.64451 -0.96 0
4.71488 -0.96 0
4.78525 -0.96 0
4.85562 -0.96 0
4.92599 -0.96 0
4.99636 -0.96 0
5.06674 -0.96 0
5.13711 -0.96 0
5.20748 -0.96 0
5.27785 -0.96 0
5.34822 -0.96 0
5.41859 -0.96 0
5.48896 -0.96 0
5.55934 -0.96 0
5.62971 -0.96 0
5.70008 -0.96 0
5.77045 -0.96 0
5.84082 -0.96 0
5.91119 -0.96 0
5.98156 -0.96 0
6.05193 -0.96 0
6.12231 -0.950812 0
6.19268 -0.941625 0
6.26305 -0.932437 0
6.33342 -0.92325 0
6.40379 -0.914062 0
6.47416 -0.904875 0
6.54453 -0.895687 0
6.61491 -0.8865 0
6.68528 -0.877312 0
6.75565 -0.868125 0
6.82602 -0.858937 0
6.89639 -0.84975 0
6.96676 -0.840562 0
7.03713 -0.831375 0
7.1075 -0.822187 0
7.17788 -0.813 0
7.24825 -0.803812 0
7.31862 -0.794625 0
7.38899 -0.785437 0
7.45936 -0.77625 0
7.52973 -0.767062 0
7.6001 -0.757875 0
7.67048 -0.748687 0
7.74085 -0.7395 0
7.81122 -0.730312 0
7.88159 -0.721125 0
7.95196 -0.711937 0
8.02233 -0.70275 0
8.0927 -0.693562 0
8.16307 -0.684375 0
8.23345 -0.675187 0
8.30382 -0.666 0
8.37419 -0.656812 0
8.44456 -0.647625 0
8.51493 -0.638437 0
8.5853 -0.62925 0
8.65567 -0.620062 0
8.72605 -0.610875 0
8.79642 -0.601687 0
8.86679 -0.5925 0
8.93716 -0.583312 0
9.00753 -0.574125 0
9.0779 -0.564937 0
9.14827 -0.55575 0
9.21864 -0.546562 0
9.28902 -0.537374 0
9.35939 -0.528187 0
9.42976 -0.518999 0
9.50013 -0.509812 0
9.5705 -0.500624 0
9.64087 -0.491437 0
9.71124 -0.482249 0
9.78162 -0.473062 0
9.85199 -0.463874 0
9.92236 -0.454687 0
9.99273 -0.445499 0
10.0631 -0.436312 0
10.1335 -0.427124 0
10.2038 -0.417937 0
10.2742 -0.408749 0
10.3446 -0.399562 0
10.415 -0.390374 0
10.4853 -0.381187 0
10.5557 -0.371999 0
0 0.04 0
0.0703713 0.04 0
0.140743 0.04 0
0.211114 0.04 0
0.281485 0.04 0
0.351857 0.04 0
0.422228 0.04 0
0.492599 0.04 0
0.562971 0.04 0
0.633342 0.04 0
0.703713 0.04 0
0.774085 0.04 0
0.844456 0.04 0
0.914827 0.04 0
0.985199 0.04 0
1.05557 0.04 0
1.12594 0.04 0
1.19631 0.04 0
1.26668 0.04 0
1.33706 0.04 0
1.40743 0.04 0
1.4778 0.04 0
1.54817 0.04 0
1.61854 0.04 0
1.68891 0.04 0
1.75928 0.04 0
1.82965 0.04 0
1.90003 0.04 0
1.9704 0.04 0
2.04077 0.0384003 0
2.11114 0.0279877 0
2.18151 0.00724739 0
2.25188 -0.0253676 0
2.32225 -0.0730079 0
2.39263 -0.129693 0
2.463 -0.186379 0
2.53337 -0.243065 0
2.60374 -0.29975 0
2.67411 -0.356436 0
2.74448 -0.413121 0
2.81485 -0.469807 0
2.88522 -0.526493 0
2.9556 -0.583178 0
3.02597 -0.639864 0
3.09634 -0.696549 0
3.16671 -0.753235 0
3.23708 -0.809904 0
3.30745 -0.856648 0
3.37782 -0.888592 0
3.4482 -0.90877 0
3.51857 -0.918673 0
3.58894 -0.92 0
3.65931 -0.92 0
3.72968 -0.92 0
3.80005 -0.92 0
3.87042 -0.92 0
3.94079 -0.92 0
4.01117 -0.92 0
4.08154 -0.92 0
4.15191 -0.92 0
4.22228 -0.92 0
4.29265 -0.92 0
4.36302 -0.92 0
4.43339 -0.92 0
4.50377 -0.92 0
4.57414 -0.92 0
4.64451 -0.92 0
4.71488 -0.92 0
4.78525 -0.92 0
4.85562 -0.92 0
4.92599 -0.92 0
4.99636 -0.92 0
5.06674 -0.92 0
5.13711 -0.92 0
5.20748 -0.92 0
5.27785 -0.92 0
5.34822 -0.92 0
5.41859 -0.92 0
5.48896 -0.92 0
5.55934 -0.92 0
5.62971 -0.92 0
5.70008 -0.92 0
5.77045 -0.92 0
5.84082 -0.92 0
5.91119 -0.92 0
5.98156 -0.92 0
6.05193 -0.92 0
6.12231 -0.911 0
6.19268 -0.902 0
6.26305 -0.893 0
6.33342 -0.884 0
6.40379 -0.875 0
6.47416 -0.866 0
6.54453 -0.857 0
6.61491 -0.848 0
6.68528 -0.839 0
6.75565 -0.83 0
6.82602 -0.821 0
6.89639 -0.812 0
6.96676 -0.803 0
7.03713 -0.794 0
7.1075 -0.785 0
7.17788 -0.776 0
7.24825 -0.767 0
7.31862 -0.758 0
7.38899 -0.749 0
7.45936 -0.74 0
7.52973 -0.731 0
7.6001 -0.722 0
7.67048 -0.713 0
7.74085 -0.704 0
7.81122 -0.695 0
7.88159 -0.686 0
7.95196 -0.677 0
8.02233 -0.668 0
8.0927 -0.659 0
8.16307 -0.65 0
8.23345 -0.641 0
8.30382 -0.632 0
8.37419 -0.623 0
8.44456 -0.614 0
8.51493 -0.605 0
8.5853 -0.596 0
8.65567 -0.587 0
8.72605 -0.578 0
8.79642 -0.569 0
8.86679 -0.56 0
8.93716 -0.551 0
9.00753 -0.542 0
9.0779 -0.533 0
9.14827 -0.524 0
9.21864 -0.515 0
9.28902 -0.506 0
9.35939 -0.496999 0
9.42976 -0.487999 0
9.50013 -0.478999 0
9.5705 -0.469999 0
9.64087 -0.460999 0
9.71124 -0.451999 0
9.78162 -0.442999 0
9.85199 -0.433999 0
9.92236 -0.424999 0
9.99273 -0.415999 0
10.0631 -0.406999 0
10.1335 -0.397999 0
10.2038 -0.388999 0
10.2742 -0.379999 0
10.3446 -0.370999 0
10.415 -0.361999 0
10.4853 -0.352999 0
10.5557 -0.343999 0
0 0.06 0
0.0703713 0.06 0
0.140743 0.06 0
0.211114 0.06 0
0.281485 0.06 0
0.351857 0.06 0
0.422228 0.06 0
0.492599 0.06 0
0.562971 0.06 0
0.633342 0.06 0
0.703713 0.06 0
0.774085 0.06 0
0.844456 0.06 0
0.914827 0.06 0
0.985199 0.06 0
1.05557 0.06 0
1.12594 0.06 0
1.19631 0.06 0
1.26668 0.06 0
1.33706 0.06 0
1.40743 0.06 0
1.4778 0.06 0
1.54817 0.06 0
1.61854 0.06 0
1.68891 0.06 0
1.75928 0.06 0
1.82965 0.06 0
1.90003 0.06 0
1.9704 0.06 0
2.04077 0.0584336 0
2.11114 0.048238 0
2.18151 0.0279297 0
2.25188 -0.00400573 0
2.32225 -0.0506536 0
2.39263 -0.106158 0
2.463 -0.161663 0
2.53337 -0.217167 0
2.60374 -0.272672 0
2.67411 -0.328177 0
2.74448 -0.383681 0
2.81485 -0.439186 0
2.88522 -0.494691 0
2.9556 -0.550195 0
3.02597 -0.6057 0
3.09634 -0.661204 0
3.16671 -0.716709 0
3.23708 -0.772198 0
3.30745 -0.817968 0
3.37782 -0.849246 0
3.4482 -0.869004 0
3.51857 -0.878701 0
3.58894 -0.88 0
3.65931 -0.88 0
3.72968 -0.88 0
3.80005 -0.88 0
3.87042 -0.88 0
3.94079 -0.88 0
4.01117 -0.88 0
4.08154 -0.88 0
4.15191 -0.88 0
4.22228 -0.88 0
4.29265 -0.88 0
4.36302 -0.88 0
4.43339 -0.88 0
4.50377 -0.88 0
4.57414 -0.88 0
4.64451 -0.88 0
4.71488 -0.88 0
4.78525 -0.88 0
4.85562 -0.88 0
4.92599 -0.88 0
4.99636 -0.88 0
5.06674 -0.88 0
5.13711 -0.88 0
5.20748 -0.88 0
5.27785 -0.88 0
5.34822 -0.88 0
5.41859 -0.88 0
5.48896 -0.88 0
5.55934 -0.88 0
5.62971 -0.88 0
5.70008 -0.88 0
5.77045 -0.88 0
5.84082 -0.88 0
5.91119 -0.88 0
5.98156 -0.88 0
6.05193 -0.88 0
6.12231 -0.871187 0
6.19268 -0.862375 0
6.26305 -0.853562 0
6.33342 -0.84475 0
6.40379 -0.835937 0
6.47416 -0.827125 0
6.54453 -0.818312 0
6.61491 -0.8095 0
6.68528 -0.800687 0
6.75565 -0.791875 0
6.82602 -0.783062 0
6.89639 -0.77425 0
6.96676 -0.765437 0
7.03713 -0.756625 0
7.1075 -0.747812 0
7.17788 -0.739 0
7.24825 -0.730187 0
7.31862 -0.721375 0
7.38899 -0.712562 0
7.45936 -0.70375 0
7.52973 -0.694937 0
7.6001 -0.686125 0
7.67048 -0.677312 0
7.74085 -0.6685 0
7.81122 -0.659687 0
7.88159 -0.650875 0
7.95196 -0.642062 0
8.02233 -0.63325 0
8.0927 -0.624437 0
8.16307 -0.615625 0
8.23345 -0.606812 0
8.30382 -0.598 0
8.37419 -0.589187 0
[...]
POINT_DATA 7701
SCALARS pressure float 1
LOOKUP_TABLE default
0.0487059
0.0469501
0.0441251
0.0418159
0.0394132
0.0370683
0.0347088
0.0323428
0.0299593
0.0275533
0.0251218
0.0226584
0.0201606
0.0176196
0.0150329
0.0123878
0.009682
0.00689675
0.00403016
0.0010542
-0.00203165
-0.0052717
-0.00866305
-0.0122808
-0.0161138
-0.0203051
-0.024827
-0.0300185
-0.0358727
-0.0438815
-0.0495423
-0.0471076
-0.0394297
-0.0290809
-0.0199637
-0.0148018
-0.0114586
-0.00888227
-0.0070849
-0.00565416
-0.0045905
-0.00374404
-0.0030632
-0.00242452
-0.00177092
-0.000944761
-0.000163703
0.000241065
0.000474991
0.000675489
0.000794955
0.00123173
0.00236929
0.00420536
0.00696965
0.0107525
0.0153874
0.0203957
0.0250074
0.0285184
0.0305453
0.0310483
0.0303309
0.0286985
0.0265514
0.0242123
0.021845
0.0195743
0.0174243
0.01548
0.0137365
0.0121994
0.010856
0.0096832
0.00868832
0.0078502
0.00718669
0.00669671
0.00635268
0.00613926
0.00602524
0.00597257
0.00598488
0.00599028
0.00608222
0.00606413
0.00626911
0.00643855
0.00631872
0.00630969
0.00623284
0.0061967
0.00614941
0.0061218
0.00609769
0.00608474
0.00607673
0.00607484
0.00607587
0.00607945
0.006084
0.00608939
0.00609504
0.00610117
0.00610805
0.00611634
0.00612674
0.00614007
0.00615712
0.00617862
0.00620521
0.00623746
0.00627581
0.00632057
0.00637191
0.00642983
0.00649413
0.00656436
0.00663992
0.00671992
0.00680326
0.00688866
0.00697457
0.0070593
0.00714102
0.0072178
0.00728753
0.00734813
0.00739725
0.0074328
0.00745206
0.00745374
0.00743472
0.00739357
0.00732711
0.00723577
0.00711493
0.00696747
0.00678583
0.00657767
0.00632895
0.00605869
0.00573572
0.00540571
0.00499804
0.00461975
0.00410513
0.00371148
0.00302649
0.002692
0.00191298
0.0487015
0.0469353
0.0441125
0.0418143
0.0394104
0.0370655
0.034705
0.0323381
0.0299536
0.0275466
0.025114
0.0226494
0.0201502
0.0176075
0.015019
0.0123718
0.00966353
0.00687534
0.00400538
0.00102528
-0.0020653
-0.00531139
-0.00870974
-0.0123371
-0.0161816
-0.020391
-0.0249365
-0.0301732
-0.0359652
-0.0434815
-0.0486816
-0.0464075
-0.0393388
-0.0295703
-0.020567
-0.01526
-0.0118237
-0.00918001
-0.00732689
-0.00585451
-0.00475258
-0.00387461
-0.00317159
-0.00252446
-0.00188878
-0.00109763
-0.000304279
0.00016806
0.000478315
0.000762785
0.000992063
0.00150695
0.00264635
0.00442956
0.00708748
0.0107093
0.0151496
0.0199718
0.0244471
0.027893
0.0299249
0.0304862
0.0298596
0.0283319
0.0262882
0.0240378
0.0217404
0.019526
0.0174219
0.0155142
0.0137977
0.01228
0.0109515
0.00979111
0.00880809
0.00798143
0.00732689
0.00684096
0.0064953
0.00627523
0.00615095
0.0060859
0.00608668
0.00608047
0.00616471
0.0061385
0.00630665
0.00644208
0.00632652
0.00632585
0.00625184
0.00621933
0.00617318
0.00614648
0.00612201
0.00610828
0.00609883
0.00609522
0.00609434
0.00609598
0.00609864
0.00610232
0.00610644
0.00611128
0.00611707
0.00612448
0.00613416
0.0061469
0.00616344
0.00618447
0.0062106
0.00624233
0.00628011
0.00632421
0.00637478
0.0064318
0.00649506
0.00656412
0.00663835
0.00671688
0.00679861
0.00688225
0.00696628
0.00704902
0.00712865
0.00720326
0.00727074
0.00732903
0.00737581
0.00740898
0.0074259
0.00742528
0.00740392
0.00736051
0.00729189
0.00719849
0.00707567
0.00692635
0.0067429
0.00653311
0.00628274
0.00601103
0.00568645
0.00535521
0.00494575
0.0045663
0.0040489
0.00365233
0.00296121
0.00260983
0.00148412
0.0487053
0.0469208
0.0440935
0.0418091
0.0394058
0.0370609
0.0346995
0.0323316
0.0299458
0.0275374
0.0251033
0.0226369
0.0201358
0.0175909
0.0149999
0.0123498
0.00963817
0.00684595
0.00397149
0.000985818
-0.00211099
-0.00536508
-0.00877237
-0.012412
-0.0162701
-0.0205004
-0.0250669
-0.0303361
-0.0360054
-0.0427856
-0.0473262
-0.0452756
-0.0390731
-0.0302302
-0.0214741
-0.0159721
-0.012403
-0.00965469
-0.00771312
-0.0061747
-0.00501248
-0.00408467
-0.00334555
-0.00268116
-0.00206407
-0.00132948
-0.000539182
1.48771e-05
0.000426134
0.000809993
0.0011673
0.00175144
0.00284627
0.00451604
0.00700033
0.0104123
0.0146429
0.0193054
0.023692
0.0271131
0.0291717
0.0297963
0.0292591
0.0278353
0.0259034
0.0237556
0.0215446
0.0194019
0.0173532
0.0154945
0.0138172
0.0123298
0.011025
0.00988353
0.00891932
0.00811056
0.00747482
0.0070045
0.00666602
0.00644647
0.00631511
0.00623857
0.00622635
0.0062062
0.00627846
0.00624125
0.00636171
0.00645387
0.00634388
0.00635103
0.00628019
0.00625173
0.00620697
0.00618145
0.00615659
0.00614194
0.00613071
0.00612489
0.00612145
0.00612049
0.00612063
0.00612193
0.0061239
0.00612689
0.00613111
0.00613719
0.00614574
0.00615751
0.00617319
0.00619342
0.00621875
0.00624964
0.00628646
0.00632948
0.00637884
0.00643448
0.00649617
0.00656348
0.00663576
0.00671214
0.00679152
0.00687265
0.00695399
0.00703389
0.00711055
0.00718207
0.00724636
0.00730138
0.00734482
0.00737464
0.00738823
0.00738428
0.00735956
0.00731288
0.0072411
0.00714466
0.00701886
0.00686673
0.0066805
0.00646821
0.00621523
0.00594129
0.00561414
0.005281
0.00486871
0.00448752
0.00396618
0.00356591
0.00286898
0.00250192
0.00142593
0.0487255
0.0469232
0.0440787
0.0418005
0.0394025
0.0370578
0.0346967
0.0323283
0.029942
0.0275329
0.0250981
0.0226308
0.0201288
0.0175829
0.0149907
0.0123391
0.009626
0.00683191
0.00395551
0.000967381
-0.00213189
-0.00538918
-0.00879943
-0.0124429
-0.0163033
-0.0205356
-0.0250915
-0.030318
-0.0358138
-0.0420377
-0.0461692
-0.044316
-0.0387057
-0.0305821
-0.0220882
-0.0164853
-0.0128475
-0.0100297
-0.00802318
-0.00643505
-0.00522659
-0.00426029
-0.00349297
-0.00281424
-0.00220327
-0.00151291
-0.000750034
-0.000166431
0.00029536
0.000711614
0.00111033
0.0016719
0.00264991
0.00415968
0.00645904
0.00972917
0.0138995
0.0185924
0.0230548
0.0265461
0.0286472
0.0292931
0.0287779
0.0273866
0.025511
0.0234289
0.0212825
0.0191941
0.0171864
0.015376
0.0137423
0.0122898
0.0110095
0.00988217
0.00893016
0.00813033
0.00751171
0.00706408
0.00674328
0.00653905
0.00641414
0.00633891
0.00632237
0.00629606
0.00635699
0.00631164
0.00640469
0.00647329
0.00636526
0.00637123
0.00630204
0.00627502
0.00623134
0.00620667
0.00618192
0.00616697
0.00615484
0.00614775
0.00614266
0.00613998
0.00613834
0.00613789
0.00613823
0.00613973
0.00614262
0.00614755
0.00615508
0.00616594
0.00618079
0.00620024
0.00622483
0.00625496
0.00629096
0.00633308
0.00638145
0.00643602
0.00649653
0.00656252
0.00663336
0.00670816
0.00678586
0.00686518
0.0069446
0.0070225
0.00709706
0.00716639
0.00722843
0.00728113
0.00732221
0.00734962
0.0073608
0.00735446
0.00732728
0.00727819
0.00720403
0.00710528
0.00697718
0.00682285
0.00663439
0.0064201
0.00616497
0.00588924
0.00555996
0.0052253
0.00481077
0.00442831
0.00390466
0.00350266
0.00280686
0.0024401
0.00139547
0.0487551
0.0469329
0.0440631
0.0417891
0.0394002
0.0370559
0.0346956
0.0323272
0.0299408
0.0275314
0.0250963
0.0226286
0.0201263
0.0175799
0.0149873
0.0123353
0.00962176
0.00682713
0.00395037
0.000961724
-0.00213762
-0.00539506
-0.00880433
-0.0124461
-0.016301
-0.0205224
-0.0250464
-0.0301829
-0.0354327
-0.0410635
-0.0448236
-0.0432473
-0.0382599
-0.030848
-0.0226257
-0.0169402
-0.0132607
-0.0103925
-0.00833019
-0.00669736
-0.00544484
-0.00444098
-0.00364587
-0.00295521
-0.00235136
-0.00170602
-0.000981558
-0.000391584
9.56612e-05
0.000511022
0.000916573
0.00141245
0.00222363
0.00352503
0.00559875
0.00871793
0.0128479
0.0176039
0.0221629
0.0257283
0.0278653
0.0285274
0.0280416
0.0267024
0.0249161
0.0229307
0.0208764
0.0188529
0.0168819
0.0151274
0.0135473
0.0121381
0.0108871
0.00977423
0.00883407
0.0080423
0.00745129
0.00704499
0.00675948
0.00658908
0.00648535
0.00642338
0.00640902
0.00638097
0.00643064
0.00637868
0.00644549
0.00649157
0.00638621
0.00638938
0.00632266
0.00629684
0.00625486
0.00623142
0.00620737
0.00619258
0.00617994
0.00617186
0.00616537
0.00616102
0.00615756
0.00615529
0.00615388
0.00615377
0.00615518
0.00615879
0.00616515
0.00617495
0.00618881
0.00620735
0.00623105
0.00626031
0.00629541
0.00633657
0.00638389
0.00643735
0.00649665
0.00656131
0.00663069
0.00670393
0.00677994
0.00685746
0.00693498
0.00701087
0.00708333
0.00715049
0.00721027
0.00726065
0.00729934
0.00732432
0.00733308
0.00732427
0.00729457
0.007243
0.00716637
0.0070652
0.00693467
0.00677803
0.0065872
0.00637078
0.00611337
0.00583574
0.00550425
0.00516802
0.00475135
0.0043677
0.00384251
0.00343957
0.00274757
0.00238275
0.00136676
0.0487954
0.0469517
0.0440482
0.0417751
0.0393992
0.0370559
0.0346971
0.0323293
0.0299433
0.0275342
0.0250994
0.0226321
0.0201302
0.0175844
0.0149926
0.0123414
0.00962907
0.0068358
0.00396099
0.000974657
-0.00212126
-0.00537438
-0.00877685
-0.0124088
-0.0162466
-0.0204387
-0.0249016
-0.0298996
-0.0348719
-0.0399492
-0.0433957
-0.0421186
-0.0377151
-0.0309773
-0.0230483
-0.0173031
-0.0136031
-0.010707
-0.00860313
-0.0069354
-0.00564558
-0.00460833
-0.00378701
-0.00308476
-0.0024845
-0.00188157
-0.00121049
-0.000647604
-0.000172609
0.000194427
0.000555836
0.000933439
0.00153907
0.00261261
0.00446215
0.00746615
0.0116064
0.0164714
0.0211433
0.0247674
0.0269113
0.027565
0.027101
0.0258245
0.0241541
0.0222935
0.0203516
0.0184012
0.0164769
0.0148045
0.013301
0.0119474
0.0107254
0.00961329
0.00866264
0.00784983
0.00727719
0.00692254
0.00668617
0.0065688
0.00650116
0.00646544
0.00646233
0.00643977
0.00648091
0.00642706
0.00647443
0.00650351
0.00640224
0.00640057
0.00633652
0.00631136
0.00627173
0.00625004
0.00622756
0.00621377
0.00620147
0.00619315
0.00618587
0.00618037
0.00617547
0.00617164
0.00616864
0.00616701
0.00616701
0.0061693
0.00617446
0.00618317
0.00619601
0.00621358
0.00623635
0.00626473
0.00629896
0.00633924
0.00638565
0.00643812
0.00649638
0.00655991
0.00662808
0.00670003
0.00677466
0.00685069
0.00692662
0.00700085
0.00707156
0.00713688
0.00719475
0.00724316
0.00727979
0.00730267
0.00730931
0.0072983
0.00726633
0.00721251
0.00713361
0.0070302
0.00689739
0.00673855
0.00654545
0.00632697
0.00606738
0.00578793
0.00545437
0.00511669
0.00469826
0.00431372
0.00378815
0.00338546
0.00270012
0.00234043
0.00134568
0.0488458
0.0469786
0.0440335
0.0417587
0.0393996
0.0370582
0.0347015
0.0323348
0.02995
0.0275417
0.0251079
0.0226417
0.0201413
0.017597
0.0150072
0.0123584
0.00964901
0.0068592
0.00398885
0.00100787
-0.00208084
-0.00532484
-0.00871431
-0.012328
-0.0161369
-0.020282
-0.0246594
-0.0294855
-0.0341638
-0.0387149
-0.0418633
-0.0408959
-0.0370827
-0.0310144
-0.0234005
-0.0176054
-0.0138894
-0.0109813
-0.00884801
-0.00715437
-0.0058333
-0.00476617
-0.00391984
-0.00320674
-0.00260922
-0.0020456
-0.00143221
-0.000915618
-0.000476088
-0.000185626
0.000108207
0.000347218
0.000735773
0.00157882
0.00320849
0.006117
0.0102768
0.0152322
0.0199626
0.0235779
0.0256763
0.0262993
0.025871
0.0246956
0.0231991
0.0215014
0.0197027
0.0178085
0.0158715
0.0142661
0.0128456
0.0115599
0.0103742
0.00926381
0.00830148
0.00746621
0.0069352
0.00666658
0.00650806
0.00647316
0.00646275
0.00646938
0.00648822
0.00647918
0.00651501
0.00646319
0.00649368
0.00650691
0.00641115
0.0064039
0.00634319
0.00631907
0.00628286
0.00626401
0.0062443
0.00623253
0.00622149
0.00621366
0.00620611
0.0061998
0.00619366
0.00618837
0.00618379
0.00618058
0.00617906
0.00617993
0.00618379
0.00619131
0.00620306
0.00621958
0.00624136
0.00626879
0.00630215
0.00634159
0.00638714
0.00643869
0.00649595
0.00655846
0.00662557
0.00669637
0.00676975
0.00684443
0.00691892
0.0069916
0.00706068
0.00712429
0.00718034
0.00722687
0.0072615
0.00728233
0.00728689
0.00727369
0.00723945
0.00718338
0.00710218
0.00699648
0.00686133
0.00670023
0.00650481
0.00628422
0.00602241
0.0057411
0.00540556
0.00506647
0.00464663
0.00426143
0.00373647
0.00333474
0.00265762
0.00230281
0.00132582
0.0489062
0.0470143
0.0440207
0.0417411
0.0394019
0.0370633
0.0347092
0.0323446
0.0299616
0.0275549
0.0251229
0.0226588
0.0201608
0.0176194
0.0150332
0.0123884
0.00968403
0.00690012
0.00403714
0.00106506
-0.00201214
-0.0052415
-0.008611
-0.0121972
-0.0159653
-0.020046
-0.0243169
-0.0289448
-0.0333266
-0.0373948
-0.0402581
-0.0395822
-0.0363503
-0.030954
-0.0236886
-0.0178565
-0.0141199
-0.0112104
-0.00905824
-0.00734807
-0.00600299
-0.00491042
-0.00404046
-0.00331602
-0.00271911
-0.00219108
-0.00163693
-0.0011804
-0.000792346
-0.000599732
-0.000384218
-0.000283366
-9.99692e-05
0.000533023
0.00196927
0.00481484
0.0089942
0.013993
0.0186955
0.0222122
0.0242026
0.024776
0.0244065
0.0233868
0.0221323
0.0206688
0.0190327
0.0172131
0.0153315
0.0138557
0.0125569
0.011347
0.0101854
0.00904278
0.00800459
0.00704787
0.00650733
0.00632473
0.00624692
0.00631036
0.00637205
0.00643459
0.00648355
0.0064942
0.00652815
0.00648293
0.00649958
0.00649867
0.00641009
0.00639672
0.00633998
0.00631734
0.00628571
0.00627106
0.00625569
0.00624738
0.00623877
0.00623236
0.00622523
0.00621859
0.00621151
0.00620492
0.00619883
0.00619404
0.00619095
0.00619035
0.00619283
0.00619911
0.00620973
0.00622519
0.00624598
0.0062725
0.00630502
0.00634365
0.00638841
0.00643914
0.00649554
0.00655718
0.00662337
0.00669318
0.00676551
0.00683903
0.00691225
0.00698355
0.00705115
0.00711318
0.00716755
0.00721228
0.00724501
0.00726387
0.00726638
0.00725102
0.00721452
0.00715619
0.00707265
0.00696464
0.00682711
0.0066637
0.00646592
0.00624316
0.00597914
0.00569596
0.00535854
0.0050181
0.00459724
0.00421161
0.00368822
0.00328802
0.00262034
0.00227015
0.00130737
0.0489758
0.0470587
0.0440112
0.0417232
0.0394063
0.0370714
0.0347204
0.0323588
0.0299785
0.0275742
0.0251449
0.0226839
0.0201896
0.0176524
0.0150712
0.0124324
0.0097352
0.00695981
0.0041073
0.00114788
-0.00191325
-0.00512215
-0.00846446
-0.0120138
-0.0157291
-0.0197289
-0.0238756
-0.0282866
-0.0323778
-0.0360122
-0.038605
-0.0381844
-0.0355138
-0.0307999
-0.0239246
-0.0180744
-0.0143067
-0.0113991
-0.00923479
-0.00751592
-0.00615407
-0.00504107
-0.00414966
-0.00341335
-0.00281485
-0.00231759
-0.00181828
-0.00142546
-0.0010921
-0.00100438
-0.000856783
-0.000874136
-0.000871391
-0.000416332
0.000861329
0.00367207
0.007846
0.0128056
0.0173612
0.0206725
0.0224962
0.0230143
0.0227446
0.0219351
0.0210023
0.0197773
0.0183539
0.0164856
0.0143827
0.012977
0.0118084
0.0107058
0.00959384
0.00844745
0.00736806
0.0063304
0.00585099
0.0058211
0.00587025
0.00607038
0.00622911
0.00636495
0.00645462
0.00649189
0.00652636
0.00649011
0.00649364
0.00647862
0.00639791
0.00637793
0.00632572
0.00630547
0.00627999
0.00627115
0.00626184
0.00625865
0.00625383
0.00624985
0.00624385
0.00623735
0.00622958
0.00622182
0.00621422
0.00620779
0.00620307
0.0062009
0.00620192
0.00620687
0.00621631
0.00623074
0.00625059
0.00627625
0.00630795
0.00634582
0.00638982
0.00643981
0.00649549
0.00655638
0.00662173
0.00669064
0.00676199
0.00683446
0.0069065
0.0069765
0.00704268
0.00710316
0.00715585
0.00719879
0.00722958
0.00724643
0.00724683
0.00722922
0.00719036
0.00712966
0.00704368
0.00693322
0.00679319
0.00662734
0.0064271
0.00620207
0.0059358
0.0056507
0.00531152
0.00496975
0.00454826
0.00416235
0.00364132
0.00324291
0.00258533
0.00223858
0.00128808
0.0490534
0.0471109
0.0440062
0.0417073
0.0394138
0.0370828
0.0347355
0.032378
0.0300012
0.0276002
0.0251746
0.0227178
0.0202283
0.0176968
0.0151224
0.0124915
0.00980394
0.00703987
0.00420117
0.00125845
-0.00178177
-0.00496418
-0.00827196
-0.011775
-0.0154261
-0.0193299
-0.0233386
-0.0275213
-0.0313318
-0.0345816
-0.036923
-0.0367134
-0.0345677
-0.0305422
-0.024107
-0.0182697
-0.0144605
-0.0115523
-0.00937815
-0.00765621
-0.00628447
-0.00515658
-0.00424679
-0.00349816
-0.00289558
-0.00242405
-0.0019731
-0.00164106
-0.00135596
-0.00137322
-0.00126962
-0.00137314
-0.00152133
-0.00120355
-4.14144e-05
0.00276047
0.00688417
0.0116978
0.0159758
0.0189834
0.0206014
0.021084
0.0209738
0.020476
0.01996
0.0191418
0.0178474
0.0160584
0.014127
0.0128976
0.0119143
0.0108849
0.00976483
0.00852462
0.00723684
0.00582758
0.00522968
0.00532518
0.0054732
0.00580807
0.00606254
0.00627283
0.0064047
0.00647135
0.00650797
0.00648327
0.00647564
0.0064464
0.00637313
0.00634561
0.00629804
0.00628123
0.00626371
0.00626301
0.00626189
0.00626571
0.00626626
0.0062659
0.00626188
0.00625605
0.00624788
0.00623909
0.00622999
0.00622188
0.00621543
0.00621161
0.0062111
0.00621467
0.00622289
0.0062363
0.00625527
0.00628012
0.00631108
0.00634825
0.00639161
0.00644099
0.00649607
0.00655631
0.00662094
0.00668901
0.00675943
0.0068309
0.00690183
0.00697057
0.00703534
0.00709427
0.00714526
0.00718635
0.00721514
0.00722988
0.00722807
0.00720806
0.00716671
0.00710349
0.00701491
0.00690186
0.00675917
0.00659075
0.00638795
0.00616054
0.00589198
0.0056049
0.00526407
0.00492102
0.00449922
0.00411317
0.0035952
0.00319865
0.00255159
0.00220703
0.00126745
0.0491375
0.0471703
0.0440071
0.0416952
0.0394246
0.0370976
0.0347549
0.0324023
0.0300301
0.0276333
0.0252123
0.0227609
0.0202776
0.0177534
0.0151875
0.0125668
0.00989122
0.00714142
0.00431997
0.00139817
-0.00161614
-0.00476594
-0.00803193
-0.0114794
-0.0150559
-0.0188505
-0.0227107
-0.0266597
-0.0302013
-0.0331125
-0.0352254
-0.0351827
-0.0335092
-0.0301687
-0.0242304
-0.018449
-0.0145933
-0.0116786
-0.00949236
-0.00776962
-0.00639364
-0.00525654
-0.00433255
-0.00357216
-0.00296336
-0.00251179
-0.00210109
-0.00182224
-0.00157133
-0.00169065
-0.00159576
-0.00174776
-0.0020215
-0.00179417
-0.000696971
0.00211266
0.00611611
0.0106577
0.0145288
0.0171569
0.018561
0.0190492
0.0191642
0.0189982
0.0189924
0.0184286
0.0176054
0.0153564
0.0124117
0.0112993
0.0105511
0.00971862
0.00868678
0.00749524
0.00622544
0.00476342
0.0043185
0.00466317
0.00498412
0.00549225
0.00586632
0.00616732
0.00634922
0.00644951
0.00648581
0.00646881
0.00644801
0.00640241
0.00633556
0.00629979
0.00625662
0.00624427
0.0062365
0.00624641
0.00625585
0.00626888
0.00627648
0.00628095
0.00627971
0.00627512
0.0062668
0.00625707
0.00624645
0.0062366
0.00622833
0.00622276
0.00622064
0.00622276
0.00622973
0.00624212
0.00626023
0.00628435
0.00631464
0.00635122
0.00639406
0.00644296
0.00649753
0.00655718
0.00662115
0.00668847
0.006758
0.00682845
0.00689823
0.00696569
0.007029
0.00708631
0.0071355
0.00717461
0.00720125
0.00721371
0.00720949
0.00718688
0.00714284
0.00707689
0.0069855
0.00686964
0.00672413
0.00655295
0.00634746
0.00611753
0.00584665
0.00555753
0.00521514
0.00487082
0.00444906
0.00406291
0.00354857
0.00315372
0.00251737
0.00217357
0.00124446
0.049227
0.0472367
0.0440152
0.0416872
0.0394387
0.0371165
0.0347788
0.0324322
0.0300654
0.0276738
0.0252585
0.0228136
0.020338
0.0178226
0.0152672
0.0126587
0.00999774
0.00726522
0.00446453
0.00156799
-0.00141541
-0.0045265
-0.00774371
-0.0111267
-0.0146193
-0.0182935
-0.0219978
-0.025713
-0.0289977
-0.031611
-0.0335196
-0.0336062
-0.0323415
-0.0296631
-0.0242777
-0.0186093
-0.0147129
-0.0117858
-0.00958249
-0.00785771
-0.00648114
-0.00534002
-0.00440689
-0.00363635
-0.00302027
-0.00258319
-0.00220511
-0.0019693
-0.00173391
-0.00195407
-0.00182598
-0.00198807
-0.00236968
-0.00217916
-0.00109173
0.00172257
0.0055057
0.0096432
0.0129995
0.0152122
0.0164349
0.0170084
0.017439
0.0177544
0.0183184
0.0185355
0.0174176
0.0157235
0.0138774
0.0127202
0.0121643
0.0112991
0.0101818
0.00882141
0.00708971
0.00457925
0.00365091
0.00420029
0.00459571
0.00523278
0.00569744
0.00606521
0.00628478
0.00641409
0.00645119
0.00644546
0.0064136
0.00634924
0.00628489
0.00623882
0.00619896
0.00619239
0.00619669
0.00622037
0.00624324
0.00626798
0.00628447
0.0062952
0.0062976
0.00629474
0.00628656
0.00627598
0.00626381
0.00625214
0.00624196
0.00623454
0.00623073
0.00623137
0.00623707
0.00624839
0.00626566
0.00628908
0.00631881
0.00635492
0.00639736
0.00644586
0.00649999
0.00655914
0.00662251
0.00668911
0.00675779
0.00682722
0.00689578
0.00696186
0.00702362
0.00707918
0.00712641
0.00716337
0.00718764
0.00719762
0.00719076
0.0071653
0.00711831
0.00704937
0.00695493
0.00683603
0.00668747
0.00651335
0.00630503
0.00607245
0.0057992
0.00550798
0.00516415
0.00481856
0.00439716
0.0040109
0.00350067
0.00310725
0.00248166
0.00213717
0.00121859
0.0493206
0.0473091
0.0440306
0.0416843
0.0394567
0.0371399
0.0348076
0.0324679
0.0301073
0.0277219
0.0253134
0.0228763
0.0204096
0.0179048
0.0153616
0.0127677
0.0101239
0.00741169
0.0046353
0.00176833
-0.00117926
-0.00424573
-0.00740752
-0.0107178
-0.0141184
-0.0176633
-0.0212068
-0.024692
-0.0277317
-0.030082
-0.0318093
-0.0319961