# vtk DataFile Version 2.0
time_insac
ASCII
DATASET STRUCTURED_GRID
DIMENSIONS 51 51 1
POINTS 2601 float
0 0 0
0.02 0 0
0.04 0 0
0.06 0 0
0.08 0 0
0.1 0 0
0.12 0 0
0.14 0 0
0.16 0 0
0.18 0 0
0.2 0 0
0.22 0 0
0.24 0 0
0.26 0 0
0.28 0 0
0.3 0 0
0.32 0 0
0.34 0 0
0.36 0 0
0.38 0 0
0.4 0 0
0.42 0 0
0.44 0 0
0.46 0 0
0.48 0 0
0.5 0 0
0.52 0 0
0.54 0 0
0.56 0 0
0.58 0 0
0.6 0 0
0.62 0 0
0.64 0 0
0.66 0 0
0.68 0 0
0.7 0 0
0.72 0 0
0.74 0 0
0.76 0 0
0.78 0 0
0.8 0 0
0.82 0 0
0.84 0 0
0.86 0 0
0.88 0 0
0.9 0 0
0.92 0 0
0.94 0 0
0.96 0 0
0.98 0 0
1 0 0
0 0.02 0
0.02 0.02 0
0.04 0.02 0
0.06 0.02 0
0.08 0.02 0
0.1 0.02 0
0.12 0.02 0
0.14 0.02 0
0.16 0.02 0
0.18 0.02 0
0.2 0.02 0
0.22 0.02 0
0.24 0.02 0
0.26 0.02 0
0.28 0.02 0
0.3 0.02 0
0.32 0.02 0
0.34 0.02 0
0.36 0.02 0
0.38 0.02 0
0.4 0.02 0
0.42 0.02 0
0.44 0.02 0
0.46 0.02 0
0.48 0.02 0
0.5 0.02 0
0.52 0.02 0
0.54 0.02 0
0.56 0.02 0
0.58 0.02 0
0.6 0.02 0
0.62 0.02 0
0.64 0.02 0
0.66 0.02 0
0.68 0.02 0
0.7 0.02 0
0.72 0.02 0
0.74 0.02 0
0.76 0.02 0
0.78 0.02 0
0.8 0.02 0
0.82 0.02 0
0.84 0.02 0
0.86 0.02 0
0.88 0.02 0
0.9 0.02 0
0.92 0.02 0
0.94 0.02 0
0.96 0.02 0
0.98 0.02 0
1 0.02 0
0 0.04 0
0.02 0.04 0
0.04 0.04 0
0.06 0.04 0
0.08 0.04 0
0.1 0.04 0
0.12 0.04 0
0.14 0.04 0
0.16 0.04 0
0.18 0.04 0
0.2 0.04 0
0.22 0.04 0
0.24 0.04 0
0.26 0.04 0
0.28 0.04 0
0.3 0.04 0
0.32 0.04 0
0.34 0.04 0
0.36 0.04 0
0.38 0.04 0
0.4 0.04 0
0.42 0.04 0
0.44 0.04 0
0.46 0.04 0
0.48 0.04 0
0.5 0.04 0
0.52 0.04 0
0.54 0.04 0
0.56 0.04 0
0.58 0.04 0
0.6 0.04 0
0.62 0.04 0
0.64 0.04 0
0.66 0.04 0
0.68 0.04 0
0.7 0.04 0
0.72 0.04 0
0.74 0.04 0
0.76 0.04 0
0.78 0.04 0
0.8 0.04 0
0.82 0.04 0
0.84 0.04 0
0.86 0.04 0
0.88 0.04 0
0.9 0.04 0
0.92 0.04 0
0.94 0.04 0
0.96 0.04 0
0.98 0.04 0
1 0.04 0
0 0.06 0
0.02 0.06 0
0.04 0.06 0
0.06 0.06 0
0.08 0.06 0
0.1 0.06 0
0.12 0.06 0
0.14 0.06 0
0.16 0.06 0
0.18 0.06 0
0.2 0.06 0
0.22 0.06 0
0.24 0.06 0
0.26 0.06 0
0.28 0.06 0
0.3 0.06 0
0.32 0.06 0
0.34 0.06 0
0.36 0.06 0
0.38 0.06 0
0.4 0.06 0
0.42 0.06 0
0.44 0.06 0
0.46 0.06 0
0.48 0.06 0
0.5 0.06 0
0.52 0.06 0
0.54 0.06 0
0.56 0.06 0
0.58 0.06 0
0.6 0.06 0
0.62 0.06 0
0.64 0.06 0
0.66 0.06 0
0.68 0.06 0
0.7 0.06 0
0.72 0.06 0
0.74 0.06 0
0.76 0.06 0
0.78 0.06 0
0.8 0.06 0
0.82 0.06 0
0.84 0.06 0
0.86 0.06 0
0.88 0.06 0
0.9 0.06 0
0.92 0.06 0
0.94 0.06 0
0.96 0.06 0
0.98 0.06 0
1 0.06 0
0 0.08 0
0.02 0.08 0
0.04 0.08 0
0.06 0.08 0
0.08 0.08 0
0.1 0.08 0
0.12 0.08 0
0.14 0.08 0
0.16 0.08 0
0.18 0.08 0
0.2 0.08 0
0.22 0.08 0
0.24 0.08 0
0.26 0.08 0
0.28 0.08 0
0.3 0.08 0
0.32 0.08 0
0.34 0.08 0
0.36 0.08 0
0.38 0.08 0
0.4 0.08 0
0.42 0.08 0
0.44 0.08 0
0.46 0.08 0
0.48 0.08 0
0.5 0.08 0
0.52 0.08 0
0.54 0.08 0
0.56 0.08 0
0.58 0.08 0
0.6 0.08 0
0.62 0.08 0
0.64 0.08 0
0.66 0.08 0
0.68 0.08 0
0.7 0.08 0
0.72 0.08 0
0.74 0.08 0
0.76 0.08 0
0.78 0.08 0
0.8 0.08 0
0.82 0.08 0
0.84 0.08 0
0.86 0.08 0
0.88 0.08 0
0.9 0.08 0
0.92 0.08 0
0.94 0.08 0
0.96 0.08 0
0.98 0.08 0
1 0.08 0
0 0.1 0
0.02 0.1 0
0.04 0.1 0
0.06 0.1 0
0.08 0.1 0
0.1 0.1 0
0.12 0.1 0
0.14 0.1 0
0.16 0.1 0
0.18 0.1 0
0.2 0.1 0
0.22 0.1 0
0.24 0.1 0
0.26 0.1 0
0.28 0.1 0
0.3 0.1 0
0.32 0.1 0
0.34 0.1 0
0.36 0.1 0
0.38 0.1 0
0.4 0.1 0
0.42 0.1 0
0.44 0.1 0
0.46 0.1 0
0.48 0.1 0
0.5 0.1 0
0.52 0.1 0
0.54 0.1 0
0.56 0.1 0
0.58 0.1 0
0.6 0.1 0
0.62 0.1 0
0.64 0.1 0
0.66 0.1 0
0.68 0.1 0
0.7 0.1 0
0.72 0.1 0
0.74 0.1 0
0.76 0.1 0
0.78 0.1 0
0.8 0.1 0
0.82 0.1 0
0.84 0.1 0
0.86 0.1 0
0.88 0.1 0
0.9 0.1 0
0.92 0.1 0
0.94 0.1 0
0.96 0.1 0
0.98 0.1 0
1 0.1 0
0 0.12 0
0.02 0.12 0
0.04 0.12 0
0.06 0.12 0
0.08 0.12 0
0.1 0.12 0
0.12 0.12 0
0.14 0.12 0
0.16 0.12 0
0.18 0.12 0
0.2 0.12 0
0.22 0.12 0
0.24 0.12 0
0.26 0.12 0
0.28 0.12 0
0.3 0.12 0
0.32 0.12 0
0.34 0.12 0
0.36 0.12 0
0.38 0.12 0
0.4 0.12 0
0.42 0.12 0
0.44 0.12 0
0.46 0.12 0
0.48 0.12 0
0.5 0.12 0
0.52 0.12 0
0.54 0.12 0
0.56 0.12 0
0.58 0.12 0
0.6 0.12 0
0.62 0.12 0
0.64 0.12 0
0.66 0.12 0
0.68 0.12 0
0.7 0.12 0
0.72 0.12 0
0.74 0.12 0
0.76 0.12 0
0.78 0.12 0
0.8 0.12 0
0.82 0.12 0
0.84 0.12 0
0.86 0.12 0
0.88 0.12 0
0.9 0.12 0
0.92 0.12 0
0.94 0.12 0
0.96 0.12 0
0.98 0.12 0
1 0.12 0
0 0.14 0
0.02 0.14 0
0.04 0.14 0
0.06 0.14 0
0.08 0.14 0
0.1 0.14 0
0.12 0.14 0
0.14 0.14 0
0.16 0.14 0
0.18 0.14 0
0.2 0.14 0
0.22 0.14 0
0.24 0.14 0
0.26 0.14 0
0.28 0.14 0
0.3 0.14 0
0.32 0.14 0
0.34 0.14 0
0.36 0.14 0
0.38 0.14 0
0.4 0.14 0
0.42 0.14 0
0.44 0.14 0
0.46 0.14 0
0.48 0.14 0
0.5 0.14 0
0.52 0.14 0
0.54 0.14 0
0.56 0.14 0
0.58 0.14 0
0.6 0.14 0
0.62 0.14 0
0.64 0.14 0
0.66 0.14 0
0.68 0.14 0
0.7 0.14 0
0.72 0.14 0
0.74 0.14 0
0.76 0.14 0
0.78 0.14 0
0.8 0.14 0
0.82 0.14 0
0.84 0.14 0
0.86 0.14 0
0.88 0.14 0
0.9 0.14 0
0.92 0.14 0
0.94 0.14 0
0.96 0.14 0
0.98 0.14 0
1 0.14 0
0 0.16 0
0.02 0.16 0
0.04 0.16 0
0.06 0.16 0
0.08 0.16 0
0.1 0.16 0
0.12 0.16 0
0.14 0.16 0
0.16 0.16 0
0.18 0.16 0
0.2 0.16 0
0.22 0.16 0
0.24 0.16 0
0.26 0.16 0
0.28 0.16 0
0.3 0.16 0
0.32 0.16 0
0.34 0.16 0
0.36 0.16 0
0.38 0.16 0
0.4 0.16 0
0.42 0.16 0
0.44 0.16 0
0.46 0.16 0
0.48 0.16 0
0.5 0.16 0
0.52 0.16 0
0.54 0.16 0
0.56 0.16 0
0.58 0.16 0
0.6 0.16 0
0.62 0.16 0
0.64 0.16 0
0.66 0.16 0
0.68 0.16 0
0.7 0.16 0
0.72 0.16 0
0.74 0.16 0
0.76 0.16 0
0.78 0.16 0
0.8 0.16 0
0.82 0.16 0
0.84 0.16 0
0.86 0.16 0
0.88 0.16 0
0.9 0.16 0
0.92 0.16 0
0.94 0.16 0
0.96 0.16 0
0.98 0.16 0
1 0.16 0
0 0.18 0
0.02 0.18 0
0.04 0.18 0
0.06 0.18 0
0.08 0.18 0
0.1 0.18 0
0.12 0.18 0
0.14 0.18 0
0.16 0.18 0
0.18 0.18 0
0.2 0.18 0
0.22 0.18 0
0.24 0.18 0
0.26 0.18 0
0.28 0.18 0
0.3 0.18 0
0.32 0.18 0
0.34 0.18 0
0.36 0.18 0
0.38 0.18 0
0.4 0.18 0
0.42 0.18 0
0.44 0.18 0
0.46 0.18 0
0.48 0.18 0
0.5 0.18 0
0.52 0.18 0
0.54 0.18 0
0.56 0.18 0
0.58 0.18 0
0.6 0.18 0
0.62 0.18 0
0.64 0.18 0
0.66 0.18 0
0.68 0.18 0
0.7 0.18 0
0.72 0.18 0
0.74 0.18 0
0.76 0.18 0
0.78 0.18 0
0.8 0.18 0
0.82 0.18 0
0.84 0.18 0
0.86 0.18 0
0.88 0.18 0
0.9 0.18 0
0.92 0.18 0
0.94 0.18 0
0.96 0.18 0
0.98 0.18 0
1 0.18 0
0 0.2 0
0.02 0.2 0
0.04 0.2 0
0.06 0.2 0
0.08 0.2 0
0.1 0.2 0
0.12 0.2 0
0.14 0.2 0
0.16 0.2 0
0.18 0.2 0
0.2 0.2 0
0.22 0.2 0
0.24 0.2 0
0.26 0.2 0
0.28 0.2 0
0.3 0.2 0
0.32 0.2 0
0.34 0.2 0
0.36 0.2 0
0.38 0.2 0
0.4 0.2 0
0.42 0.2 0
0.44 0.2 0
0.46 0.2 0
0.48 0.2 0
0.5 0.2 0
0.52 0.2 0
0.54 0.2 0
0.56 0.2 0
0.58 0.2 0
0.6 0.2 0
0.62 0.2 0
0.64 0.2 0
0.66 0.2 0
0.68 0.2 0
0.7 0.2 0
0.72 0.2 0
0.74 0.2 0
0.76 0.2 0
0.78 0.2 0
0.8 0.2 0
0.82 0.2 0
0.84 0.2 0
0.86 0.2 0
0.88 0.2 0
0.9 0.2 0
0.92 0.2 0
0.94 0.2 0
0.96 0.2 0
0.98 0.2 0
1 0.2 0
0 0.22 0
0.02 0.22 0
0.04 0.22 0
0.06 0.22 0
0.08 0.22 0
0.1 0.22 0
0.12 0.22 0
0.14 0.22 0
0.16 0.22 0
0.18 0.22 0
0.2 0.22 0
0.22 0.22 0
0.24 0.22 0
0.26 0.22 0
0.28 0.22 0
0.3 0.22 0
0.32 0.22 0
0.34 0.22 0
0.36 0.22 0
0.38 0.22 0
0.4 0.22 0
0.42 0.22 0
0.44 0.22 0
0.46 0.22 0
0.48 0.22 0
0.5 0.22 0
0.52 0.22 0
0.54 0.22 0
0.56 0.22 0
0.58 0.22 0
0.6 0.22 0
0.62 0.22 0
0.64 0.22 0
0.66 0.22 0
0.68 0.22 0
0.7 0.22 0
0.72 0.22 0
0.74 0.22 0
0.76 0.22 0
0.78 0.22 0
0.8 0.22 0
0.82 0.22 0
0.84 0.22 0
0.86 0.22 0
0.88 0.22 0
0.9 0.22 0
0.92 0.22 0
0.94 0.22 0
0.96 0.22 0
0.98 0.22 0
1 0.22 0
0 0.24 0
0.02 0.24 0
0.04 0.24 0
0.06 0.24 0
0.08 0.24 0
0.1 0.24 0
0.12 0.24 0
0.14 0.24 0
0.16 0.24 0
0.18 0.24 0
0.2 0.24 0
0.22 0.24 0
0.24 0.24 0
0.26 0.24 0
0.28 0.24 0
0.3 0.24 0
0.32 0.24 0
0.34 0.24 0
0.36 0.24 0
0.38 0.24 0
0.4 0.24 0
0.42 0.24 0
0.44 0.24 0
0.46 0.24 0
0.48 0.24 0
0.5 0.24 0
0.52 0.24 0
0.54 0.24 0
0.56 0.24 0
0.58 0.24 0
0.6 0.24 0
0.62 0.24 0
0.64 0.24 0
0.66 0.24 0
0.68 0.24 0
0.7 0.24 0
0.72 0.24 0
0.74 0.24 0
0.76 0.24 0
0.78 0.24 0
0.8 0.24 0
0.82 0.24 0
0.84 0.24 0
0.86 0.24 0
0.88 0.24 0
0.9 0.24 0
0.92 0.24 0
0.94 0.24 0
0.96 0.24 0
0.98 0.24 0
1 0.24 0
0 0.26 0
0.02 0.26 0
0.04 0.26 0
0.06 0.26 0
0.08 0.26 0
0.1 0.26 0
0.12 0.26 0
0.14 0.26 0
0.16 0.26 0
0.18 0.26 0
0.2 0.26 0
0.22 0.26 0
0.24 0.26 0
0.26 0.26 0
0.28 0.26 0
0.3 0.26 0
0.32 0.26 0
0.34 0.26 0
0.36 0.26 0
0.38 0.26 0
0.4 0.26 0
0.42 0.26 0
0.44 0.26 0
0.46 0.26 0
0.48 0.26 0
0.5 0.26 0
0.52 0.26 0
0.54 0.26 0
0.56 0.26 0
0.58 0.26 0
0.6 0.26 0
0.62 0.26 0
0.64 0.26 0
0.66 0.26 0
0.68 0.26 0
0.7 0.26 0
0.72 0.26 0
0.74 0.26 0
0.76 0.26 0
0.78 0.26 0
0.8 0.26 0
0.82 0.26 0
0.84 0.26 0
0.86 0.26 0
0.88 0.26 0
0.9 0.26 0
0.92 0.26 0
0.94 0.26 0
0.96 0.26 0
0.98 0.26 0
1 0.26 0
0 0.28 0
0.02 0.28 0
0.04 0.28 0
0.06 0.28 0
0.08 0.28 0
0.1 0.28 0
0.12 0.28 0
0.14 0.28 0
0.16 0.28 0
0.18 0.28 0
0.2 0.28 0
0.22 0.28 0
0.24 0.28 0
0.26 0.28 0
0.28 0.28 0
0.3 0.28 0
0.32 0.28 0
0.34 0.28 0
0.36 0.28 0
0.38 0.28 0
0.4 0.28 0
0.42 0.28 0
0.44 0.28 0
0.46 0.28 0
0.48 0.28 0
0.5 0.28 0
0.52 0.28 0
0.54 0.28 0
0.56 0.28 0
0.58 0.28 0
0.6 0.28 0
0.62 0.28 0
0.64 0.28 0
0.66 0.28 0
0.68 0.28 0
0.7 0.28 0
0.72 0.28 0
0.74 0.28 0
0.76 0.28 0
0.78 0.28 0
0.8 0.28 0
0.82 0.28 0
0.84 0.28 0
0.86 0.28 0
0.88 0.28 0
0.9 0.28 0
0.92 0.28 0
0.94 0.28 0
0.96 0.28 0
0.98 0.28 0
1 0.28 0
0 0.3 0
0.02 0.3 0
0.04 0.3 0
0.06 0.3 0
0.08 0.3 0
0.1 0.3 0
0.12 0.3 0
0.14 0.3 0
0.16 0.3 0
0.18 0.3 0
0.2 0.3 0
0.22 0.3 0
0.24 0.3 0
0.26 0.3 0
0.28 0.3 0
0.3 0.3 0
0.32 0.3 0
0.34 0.3 0
0.36 0.3 0
0.38 0.3 0
0.4 0.3 0
0.42 0.3 0
0.44 0.3 0
0.46 0.3 0
0.48 0.3 0
0.5 0.3 0
0.52 0.3 0
0.54 0.3 0
0.56 0.3 0
0.58 0.3 0
0.6 0.3 0
0.62 0.3 0
0.64 0.3 0
0.66 0.3 0
0.68 0.3 0
0.7 0.3 0
0.72 0.3 0
0.74 0.3 0
0.76 0.3 0
0.78 0.3 0
0.8 0.3 0
0.82 0.3 0
0.84 0.3 0
0.86 0.3 0
0.88 0.3 0
0.9 0.3 0
0.92 0.3 0
0.94 0.3 0
0.96 0.3 0
0.98 0.3 0
1 0.3 0
0 0.32 0
0.02 0.32 0
0.04 0.32 0
0.06 0.32 0
0.08 0.32 0
0.1 0.32 0
0.12 0.32 0
0.14 0.32 0
0.16 0.32 0
0.18 0.32 0
0.2 0.32 0
0.22 0.32 0
0.24 0.32 0
0.26 0.32 0
0.28 0.32 0
0.3 0.32 0
0.32 0.32 0
0.34 0.32 0
0.36 0.32 0
0.38 0.32 0
0.4 0.32 0
0.42 0.32 0
0.44 0.32 0
0.46 0.32 0
0.48 0.32 0
0.5 0.32 0
0.52 0.32 0
0.54 0.32 0
0.56 0.32 0
0.58 0.32 0
0.6 0.32 0
0.62 0.32 0
0.64 0.32 0
0.66 0.32 0
0.68 0.32 0
0.7 0.32 0
0.72 0.32 0
0.74 0.32 0
0.76 0.32 0
0.78 0.32 0
0.8 0.32 0
0.82 0.32 0
0.84 0.32 0
0.86 0.32 0
0.88 0.32 0
0.9 0.32 0
0.92 0.32 0
0.94 0.32 0
0.96 0.32 0
0.98 0.32 0
1 0.32 0
0 0.34 0
0.02 0.34 0
0.04 0.34 0
0.06 0.34 0
[...]
POINT_DATA 2601
SCALARS pressure float 1
LOOKUP_TABLE default
0.000662942
0.000643533
0.000599975
0.000550919
0.000508253
0.000481505
0.000474173
0.000488211
0.000523669
0.000580117
0.000656771
0.000752844
0.000867584
0.00100031
0.00115038
0.00131717
0.00150003
0.00169827
0.00191113
0.00213778
0.00237728
0.00262858
0.00289055
0.00316193
0.00344133
0.00372727
0.00401812
0.00431218
0.0046076
0.00490246
0.00519474
0.00548233
0.0057631
0.00603483
0.0062953
0.00654229
0.00677356
0.00698694
0.00718028
0.0073515
0.0074986
0.0076197
0.00771317
0.0077777
0.00781273
0.00781864
0.00779824
0.00775619
0.00770405
0.00765548
0.00763316
0.000682441
0.000662962
0.000623635
0.000583038
0.000548309
0.000528038
0.000525129
0.000541754
0.000578279
0.000634656
0.00071041
0.000804994
0.000917815
0.00104829
0.00119585
0.00135989
0.00153979
0.00173487
0.00194438
0.00216748
0.00240325
0.00265066
0.00290857
0.00317573
0.00345078
0.00373224
0.00401851
0.00430789
0.00459858
0.00488865
0.00517613
0.00545893
0.00573494
0.006002
0.0062579
0.00650046
0.00672752
0.00693694
0.00712666
0.0072947
0.00743923
0.00755859
0.00765142
0.00771678
0.00775452
0.00776533
0.00775224
0.00771921
0.00767675
0.00763316
0.00761088
0.000726431
0.000702364
0.000662696
0.000630465
0.000604277
0.000591681
0.000594224
0.000614174
0.000652113
0.000708404
0.000782928
0.000875434
0.000985542
0.00111282
0.00125677
0.00141688
0.00159254
0.00178311
0.00198785
0.00220596
0.00243651
0.00267849
0.00293079
0.00319217
0.00346129
0.0037367
0.00401682
0.00429998
0.00458439
0.00486818
0.00514938
0.00542596
0.00569584
0.00595689
0.00620695
0.0064439
0.00666562
0.00687005
0.00705525
0.00721936
0.00736076
0.00747805
0.00757021
0.0076367
0.00767783
0.0076945
0.00768983
0.00766629
0.00763328
0.00758962
0.00756244
0.000776386
0.000743246
0.000694304
0.000661696
0.0006366
0.000626388
0.000631008
0.000652461
0.000691097
0.000747329
0.000821123
0.000912352
0.00102074
0.00114596
0.00128757
0.00144512
0.00161806
0.00180575
0.00200751
0.00222253
0.00244994
0.00268872
0.00293779
0.00319593
0.00346182
0.00373402
0.00401096
0.00429099
0.00457234
0.00485315
0.00513146
0.00540525
0.00567244
0.00593093
0.00617856
0.00641323
0.00663283
0.00683534
0.00701885
0.00718158
0.00732197
0.00743872
0.00753094
0.00759816
0.00764074
0.00765937
0.0076569
0.00763418
0.00760046
0.0075467
0.00750975
0.000820327
0.000778253
0.00071937
0.000684684
0.00065901
0.000649812
0.000655519
0.000677845
0.000716831
0.000772867
0.000845944
0.000936009
0.00104287
0.00116627
0.00130585
0.00146119
0.00163179
0.00181707
0.00201636
0.00222889
0.00245381
0.00269013
0.00293678
0.00319258
0.0034562
0.00372623
0.00400112
0.00427923
0.00455878
0.00483793
0.00511472
0.00538712
0.00565306
0.00591042
0.00615706
0.00639083
0.00660967
0.00681153
0.00699453
0.00715691
0.00729715
0.007414
0.00750662
0.00757454
0.00761811
0.0076377
0.00763593
0.00761213
0.00757577
0.00751132
0.00746496
0.000848323
0.000798345
0.000729829
0.000691511
0.000663509
0.000653663
0.000659173
0.000681503
0.000720361
0.000776046
0.000848502
0.000937696
0.00104347
0.00116562
0.00130383
0.00145773
0.00162687
0.00181069
0.00200857
0.00221977
0.00244344
0.00267866
0.00292436
0.00317936
0.00344238
0.003712
0.00398669
0.0042648
0.00454457
0.00482412
0.0051015
0.00537466
0.00564151
0.0058999
0.00614765
0.0063826
0.00660263
0.0068057
0.00698986
0.00715336
0.00729466
0.00741248
0.00750595
0.00757452
0.00761845
0.00763778
0.00763495
0.00760814
0.00756739
0.0074926
0.007438
0.000856168
0.000799876
0.000723298
0.000681261
0.000650538
0.000639416
0.000644163
0.000666063
0.000704535
0.000759785
0.000831694
0.000920228
0.00102525
0.00114658
0.00128394
0.00143702
0.00160539
0.00178854
0.00198587
0.00219667
0.00242015
0.00265539
0.00290135
0.00315687
0.00342067
0.00369136
0.0039674
0.00424713
0.00452879
0.0048105
0.00509025
0.00536599
0.00563557
0.0058968
0.00614744
0.0063853
0.00660818
0.00681399
0.00700073
0.00716658
0.00730995
0.0074295
0.00752432
0.00759374
0.00763791
0.00765662
0.0076522
0.007622
0.00757675
0.0074933
0.00743215
0.000841092
0.000779858
0.000696673
0.000651056
0.000617474
0.000604684
0.000608289
0.000629458
0.000667382
0.00072218
0.000793673
0.000881809
0.000986458
0.00110746
0.00124458
0.00139752
0.0015659
0.00174924
0.00194698
0.00215845
0.00238288
0.00261937
0.0028669
0.00312436
0.00339045
0.0036638
0.00394286
0.00422597
0.00451134
0.00479706
0.0050811
0.00536135
0.0056356
0.0059016
0.00615705
0.00639965
0.00662713
0.00683731
0.00702811
0.00719762
0.00734415
0.00746629
0.00756303
0.0076336
0.00767805
0.00769597
0.00768967
0.00765599
0.00760637
0.00751567
0.00744933
0.000802162
0.000737039
0.000648469
0.000599609
0.0005633
0.000548749
0.000551085
0.00057142
0.000608767
0.000663185
0.000734436
0.000822458
0.000927118
0.00104827
0.00118572
0.00133919
0.00150833
0.00169271
0.00189179
0.00210495
0.00233143
0.00257037
0.00282078
0.00308155
0.0033514
0.00362896
0.00391267
0.00420086
0.00449172
0.00478329
0.0050735
0.00536017
0.00564101
0.0059137
0.00617582
0.00642499
0.00665882
0.006875
0.00707134
0.00724581
0.00739662
0.00752224
0.00762156
0.00769371
0.00773867
0.0077559
0.00774775
0.00771076
0.0076571
0.00756024
0.00748966
0.00073892
0.000670578
0.000577426
0.000525606
0.000486726
0.000470418
0.000471467
0.000490962
0.000527788
0.000581957
0.000653189
0.000741408
0.000846484
0.000968291
0.00110665
0.00126132
0.00143199
0.00161825
0.00181962
0.00203548
0.00226514
0.00250774
0.00276233
0.0030278
0.00330291
0.00358625
0.00387628
0.00417131
0.00446947
0.00476877
0.00506708
0.00536214
0.00565158
0.00593293
0.0062037
0.00646134
0.00670333
0.00692722
0.00713066
0.00731149
0.00746777
0.00759784
0.00770049
0.00777475
0.00782055
0.00783726
0.00782738
0.00778724
0.00772977
0.00762736
0.00755301
0.000651246
0.00058003
0.000482736
0.000428154
0.000386842
0.000368837
0.00036865
0.000387375
0.000423797
0.000477895
0.000549357
0.000638102
0.000744003
0.000866953
0.0010068
0.00116332
0.00133626
0.00152524
0.0017298
0.00194939
0.00218332
0.00243078
0.00269084
0.0029624
0.00324424
0.00353495
0.00383297
0.00413659
0.0044439
0.00475286
0.00506126
0.00536673
0.00566681
0.0059589
0.00624035
0.00650846
0.00676054
0.00699395
0.00720616
0.00739483
0.00755786
0.00769345
0.00780026
0.00787724
0.00792429
0.00794075
0.00792926
0.00788609
0.00782491
0.00771712
0.00763914
0.00053898
0.000464982
0.000363673
0.000306413
0.000262742
0.000243098
0.000241751
0.000259807
0.000295972
0.000350202
0.00042216
0.000511763
0.000618895
0.000743467
0.000885353
0.00104438
0.0012203
0.0014128
0.00162146
0.00184575
0.00208503
0.00233852
0.00260532
0.00288436
0.00317441
0.00347408
0.00378179
0.00409579
0.00441415
0.00473474
0.00505528
0.00537329
0.00568617
0.00599118
0.00628549
0.0065662
0.00683043
0.0070753
0.00729809
0.00749623
0.00766742
0.00780971
0.00792161
0.008002
0.00805076
0.00806723
0.00805427
0.00800806
0.00794311
0.00782976
0.00774801
0.000401849
0.000324979
0.000219551
0.000159595
0.000113573
9.23303e-05
8.98945e-05
0.000107396
0.000143461
0.000198031
0.00027075
0.000361537
0.00047029
0.000596944
0.000741403
0.000903531
0.00108313
0.00127992
0.00149352
0.00172346
0.00196914
0.00222982
0.00250461
0.00279249
0.00309223
0.00340244
0.00372155
0.00404776
0.0043791
0.00471337
0.00504818
0.00538095
0.00570892
0.00602916
0.00633866
0.00663428
0.00691288
0.00717136
0.0074067
0.0076161
0.00779703
0.00794732
0.00806536
0.00814993
0.0082009
0.00821766
0.0082033
0.00815396
0.00808503
0.00796567
0.0078798
0.000239393
0.000159434
4.96178e-05
-1.31395e-05
-6.15703e-05
-8.44046e-05
-8.78726e-05
-7.08221e-05
-3.47037e-05
2.04079e-05
9.414e-05
0.000186419
0.000297158
0.000426321
0.000573848
0.000739646
0.00092356
0.00112536
0.00134473
0.00158122
0.0018343
0.00210326
0.00238727
0.00268532
0.00299622
0.00331857
0.00365079
0.00399108
0.00433738
0.00468744
0.00503877
0.00538863
0.00573411
0.00607208
0.00639928
0.00671231
0.00700775
0.00728217
0.00753227
0.00775493
0.00794735
0.00810712
0.00823248
0.00832208
0.00837584
0.00839315
0.00837741
0.00832474
0.0082515
0.00812547
0.008035
5.09557e-05
-3.23913e-05
-0.000146983
-0.000212716
-0.00026367
-0.000288121
-0.000292589
-0.000275901
-0.000239594
-0.000183758
-0.000108783
-1.47326e-05
9.83243e-05
0.000230385
0.000381429
0.000551413
0.000740232
0.000947714
0.00117359
0.00141749
0.00167892
0.00195723
0.00225163
0.00256116
0.00288464
0.00322072
0.00356779
0.00392403
0.00428734
0.00465539
0.00502557
0.00539501
0.00576058
0.00611896
0.00646658
0.00679977
0.00711475
0.00740774
0.00767506
0.00791323
0.00811912
0.00829006
0.00842405
0.00851965
0.0085768
0.00859494
0.00857782
0.00852151
0.0084435
0.00830998
0.0082143
-0.000164311
-0.000251406
-0.000371242
-0.000440179
-0.00049382
-0.000519947
-0.00052541
-0.00050902
-0.000472411
-0.000415693
-0.000339275
-0.000243211
-0.000127546
7.75212e-06
0.000162711
0.000337338
0.000531591
0.000745357
0.000978436
0.00123052
0.00150118
0.00178983
0.00209575
0.00241801
0.00275549
0.00310685
0.0034705
0.0038446
0.00422701
0.00461531
0.00500679
0.00539842
0.00578687
0.00616854
0.00653959
0.00689596
0.00723349
0.00754798
0.00783529
0.00809152
0.00831315
0.00849715
0.00864129
0.00874399
0.0088052
0.00882445
0.00880588
0.00874553
0.00866219
0.0085202
0.00841862
-0.000407443
-0.000498687
-0.000624301
-0.000696716
-0.000753246
-0.000781139
-0.00078762
-0.000771489
-0.000734493
-0.000676767
-0.000598741
-0.000500461
-0.000381947
-0.000243125
-8.39157e-05
9.57474e-05
0.000295888
0.000516466
0.000757355
0.00101832
0.00129902
0.00159894
0.00191742
0.00225361
0.00260644
0.00297461
0.00335655
0.00375042
0.00415405
0.00456495
0.00498029
0.00539688
0.00581117
0.00621928
0.00661701
0.00699991
0.00736336
0.00770264
0.0080131
0.00829031
0.00853026
0.00872952
0.00888555
0.00899659
0.00906263
0.00908328
0.00906315
0.00899828
0.0089089
0.00875732
0.00864907
-0.00067965
-0.000775482
-0.000907461
-0.000983666
-0.00104332
-0.0010731
-0.00108065
-0.00106476
-0.00102733
-0.000968497
-0.00088874
-0.000788089
-0.000666536
-0.000523964
-0.000360237
-0.000175221
3.11814e-05
0.000259011
0.000508228
0.000778688
0.00107013
0.00138214
0.00171414
0.00206537
0.00243483
0.00282127
0.00322319
0.00363873
0.00406573
0.00450163
0.0049435
0.00538798
0.00583128
0.00626922
0.00669722
0.00711037
0.00750349
0.0078713
0.00820851
0.00851005
0.00877132
0.00898837
0.00915831
0.00927914
0.00935087
0.00937323
0.00935138
0.00928138
0.00918515
0.00902271
0.00890691
-0.000982316
-0.00108321
-0.00122219
-0.00130254
-0.00136559
-0.0013974
-0.00140609
-0.00139046
-0.00135255
-0.00129256
-0.00121099
-0.00110786
-0.000983139
-0.000836658
-0.00066822
-0.000477618
-0.000264669
-2.92449e-05
0.000228712
0.00050916
0.000811941
0.00113675
0.00148312
0.00185039
0.00223766
0.00264376
0.00306726
0.00350635
0.00395885
0.0044222
0.00489335
0.00536878
0.00584448
0.00631594
0.00677814
0.00722565
0.00765269
0.00805326
0.00842134
0.00875109
0.00903717
0.009275
0.0094612
0.0095935
0.00967192
0.00969633
0.00967254
0.00959668
0.00949262
0.00931787
0.00919351
-0.001317
-0.00142347
-0.00157015
-0.00165501
-0.00172177
-0.00175577
-0.00176569
-0.00175036
-0.00171198
-0.00165081
-0.00156738
-0.00146171
-0.00133375
-0.00118327
-0.00101001
-0.000813679
-0.000594003
-0.000350752
-8.37612e-05
0.000207045
0.000521629
0.000859816
0.00122126
0.00160543
0.00201156
0.00243859
0.00288518
0.0033496
0.00382972
0.00432295
0.00482619
0.00533578
0.00584747
0.0063564
0.0068571
0.00734356
0.00780928
0.00824746
0.00865116
0.00901362
0.0093286
0.00959071
0.00979596
0.00994173
0.010028
0.0100548
0.0100288
0.00994622
0.00983318
0.00964442
0.00951038
-0.00168545
-0.00179805
-0.00195318
-0.00204298
-0.00211376
-0.00215015
-0.00216142
-0.00214644
-0.00210761
-0.00204526
-0.00195997
-0.00185176
-0.00172055
-0.00156605
-0.00138794
-0.00118583
-0.000959356
-0.000708168
-0.000431982
-0.000130593
0.000196101
0.000548073
0.000925134
0.0013269
0.00175276
0.00220182
0.00267286
0.00316428
0.00367403
0.00419955
0.00473772
0.00528476
0.0058362
0.00638684
0.00693074
0.00746122
0.007971
0.0084523
0.00889713
0.00929757
0.00964628
0.00993683
0.0101645
0.0103261
0.0104216
0.0104513
0.0104227
0.0103323
0.0102089
0.0100041
0.00985909
-0.00208958
-0.00220894
-0.00237335
-0.00246853
-0.0025437
-0.00258267
-0.00259542
-0.00258085
-0.00254162
-0.00247811
-0.002391
-0.00228029
-0.00214588
-0.00198742
-0.00180452
-0.00159669
-0.00136346
-0.00110436
-0.000818963
-0.000506929
-0.000167995
0.000197981
0.000590988
0.00101083
0.00145709
0.00192906
0.00242571
0.00294561
0.00348684
0.00404695
0.00462283
0.00521064
0.00580575
0.00640261
0.00699477
0.00757489
0.00813476
0.00866549
0.00915782
0.00960246
0.00999063
0.0103146
0.0105687
0.0107491
0.0108555
0.0108886
0.0108569
0.0107573
0.0106218
0.0103988
0.0102412
-0.00253155
-0.00265833
-0.00283293
-0.002934
-0.00301394
-0.00305571
-0.00307007
-0.00305598
-0.00301639
-0.00295178
-0.0028629
-0.00274977
-0.00261227
-0.00244999
-0.00226244
-0.00204905
-0.00180923
-0.00154237
-0.00124792
-0.000925366
-0.000574264
-0.000194288
0.000214758
0.000652899
0.00111994
0.00161543
0.00213857
0.00268816
0.0032625
0.00385929
0.00447553
0.0051074
0.00575014
0.00639792
0.00704381
0.00767971
0.00829642
0.0088838
0.00943105
0.00992719
0.0103617
0.0107252
0.0110107
0.0112133
0.0113328
0.0113698
0.0113345
0.0112241
0.0110745
0.0108303
0.0106584
-0.00301373
-0.0031487
-0.0033345
-0.00344199
-0.00352711
-0.00357189
-0.00358798
-0.00357444
-0.00353454
-0.00346888
-0.00337831
-0.00326288
-0.00312243
-0.00295651
-0.00276455
-0.00254588
-0.00229976
-0.00202547
-0.00172228
-0.00138951
-0.00102654
-0.000632819
-0.00020792
0.000248435
0.000736328
0.00125559
0.00180573
0.00238587
0.00299457
0.00362982
0.00428882
0.00496785
0.00566214
0.00636566
0.00707102
0.00776939
0.00845047
0.00910269
0.00971348
0.0102698
0.0107589
0.0111694
0.0114923
0.0117217
0.0118568
0.0118987
0.0118589
0.0117356
0.0115692
0.0113005
0.0111121
-0.00353875
-0.00368276
-0.00388091
-0.0039954
-0.00408614
-0.00413415
-0.00415207
-0.00413911
-0.00409891
-0.00403224
-0.00394006
-0.00382245
-0.00367925
-0.00350995
-0.0033139
-0.00309029
-0.0028383
-0.00255703
-0.00224561
-0.00190317
-0.00152886
-0.00112193
-0.000681682
-0.000207553
0.000300854
0.000843719
0.00142092
0.00203196
0.00267581
0.00335083
0.00405455
0.00478352
0.00553307
0.00629709
0.00706785
0.0078358
0.00858954
0.00931588
0.0100002
0.0106269
0.0111807
0.0116473
0.0120154
0.0122772
0.0124313
0.012479
0.0124339
0.0122952
0.0121087
0.0118111
0.0116036
-0.00410957
-0.0042636
-0.00447537
-0.00459751
-0.00469433
-0.00474573
-0.00476554
-0.00475314
-0.00471262
-0.00464494
-0.00455121
-0.00443156
-0.00428582
-0.00411343
-0.00391364
-0.00368557
-0.00342823
-0.00314061
-0.00282164
-0.00247026
-0.00208543
-0.00166612
-0.00121138
-0.000720326
-0.0001922
0.000373573
0.000977313
0.00161901
0.00229815
0.00301358
0.00376335
0.00454444
0.00535249
0.00618151
0.00702356
0.00786852
0.00870386
0.00951471
0.0102841
0.0109934
0.011624
0.0121581
0.012581
0.0128826
0.0130604
0.0131155
0.013064
0.0129065
0.0126957
0.0123638
0.0121335
-0.00472947
-0.00489466
-0.00512153
-0.00525201
-0.00535536
-0.0054103
-0.00543199
-0.00542004
-0.00537909
-0.00531032
-0.00521504
-0.00509345
-0.00494536
-0.00477019
-0.0045671
-0.00433509
-0.00407306
-0.00377982
-0.00345416
-0.00309481
-0.00270052
-0.00227001
-0.00180202
-0.00129533
-0.000748814
-0.000161432
0.000467644
0.00113897
0.00185268
0.00260829
0.00340454
0.00423905
0.00510805
0.00600591
0.00692479
0.00785417
0.00878057
0.00968733
0.0105549
0.0113612
0.0120834
0.0126992
0.0131895
0.0135406
0.0137482
0.0138131
0.0137541
0.0135738
0.0133332
0.0129596
0.012702
-0.0054022
-0.00557987
-0.00582352
-0.0059631
-0.00607344
-0.00613197
-0.0061554
-0.00614368
-0.00610206
-0.00603202
-0.0059351
-0.00581159
-0.00566133
-0.00548367
-0.00527771
-0.00504234
-0.00477633
-0.00447835
-0.00414701
-0.00378088
-0.00337845
-0.00293822
-0.00245863
-0.00193811
-0.0013751
-0.000768107
-0.000115711
0.000583293
0.00132982
0.00212421
0.0029661
0.00385406
0.0047852
0.00575465
0.00675501
0.00777576
0.0088027
0.00981757
0.010798
0.0117182
0.0125499
0.0132652
0.0138392
0.014253
0.0144993
0.0145778
0.0145103
0.0143019
0.0140243
0.0135993
0.0133081
-0.006132
-0.0063237
-0.00658611
-0.00673561
-0.00685336
-0.00691541
-0.00694029
-0.00692836
-0.00688564
-0.00681397
-0.00671518
-0.00658966
-0.00643729
-0.00625738
-0.00604897
-0.00581083
-0.00554161
-0.00523985
-0.004904
-0.00453243
-0.00412346
-0.00367532
-0.00318617
-0.00265411
-0.00207716
-0.00145331
-0.00078054
-5.69055e-05
0.000719387
0.0015497
0.00243477
0.00337443
0.00436707
0.00540904
0.00649392
0.00761175
0.00874813
0.00988351
0.0109929
0.0120461
0.013009
0.0138463
0.0145253
0.0150198
0.0153175
0.0154158
0.0153398
0.0150969
0.0147729
0.0142832
0.0139495
-0.00692375
-0.00713137
-0.00741485
-0.00757512
-0.00770066
-0.00776595
-0.00779173
-0.00777889
-0.00773436
-0.00766047
-0.00755935
-0.00743155
-0.007277
-0.00709499
-0.00688446
-0.00664411
-0.00637247
-0.00606792
-0.0057288
-0.0053533
-0.00493957
-0.00448561
-0.00398935
-0.00344855
-0.00286085
-0.00222373
-0.00153454
-0.000790574
1.09315e-05
0.000872502
0.00179623
0.0027835
0.00383444
0.00494717
0.00611699
0.00733523
0.00858814
0.00985563
0.0111105
0.0123181
0.0134378
0.0144251
0.0152371
0.0158374
0.0162057
0.0163344
0.0162514
0.0159667
0.0155841
0.0150111
0.0146223
-0.00778314
-0.00800893
-0.00831623
-0.00848819
-0.00862175
-0.00868975
-0.00871551
-0.00870065
-0.00865325
-0.00857616
-0.00847196
-0.00834136
-0.00818435
-0.0080002
-0.00778778
-0.00754569
-0.00727233
-0.006966
-0.00662487
-0.00624704
-0.00583048
-0.00537305
-0.00487245
-0.00432617
-0.00373152
-0.00308553
-0.00238496
-0.00162632
-0.000805881
8.01861e-05
0.00103552
0.00206332
0.00316592
0.00434386
0.00559498
0.006913
0.00828599
0.00969455
0.0111103
0.0124949
0.0138006
0.0149725
0.0159545
0.0166957
0.0171632
0.0173404
0.0172564
0.0169221
0.0164654
0.0157828
0.0153207
-0.00871689
-0.00896362
-0.00929802
-0.00948259
-0.00962422
-0.00969391
-0.00971823
-0.00969971
-0.00964783
-0.00956613
-0.00945768
-0.0093234
-0.00916336
-0.00897679
-0.00876249
-0.00851896
-0.00824449
-0.00793727
-0.00759538
-0.0072168
-0.00679943
-0.00634099
-0.00583905
-0.00529095
-0.00469371
-0.00404402
-0.00333814
-0.00257188
-0.0017406
-0.000839155
0.000137746
0.00119534
0.00233856
0.00357102
0.00489404
0.00630502
0.00779547
0.0093486
0.0109368
0.0125196
0.014043
0.0154407
0.0166406
0.0175717
0.0181822
0.018439
0.018368
0.0179782
0.0174285
0.0166001
0.0160383
-0.009733
-0.0100041
-0.0103696
-0.0105676
-0.010717
-0.0107868
-0.0108075
-0.0107829
-0.0107243
-0.0106359
-0.0105215
-0.0103822
-0.0102181
-0.0100285
-0.00981209
-0.00956717
-0.00929198
-0.0089846
-0.00864303
-0.0082652
-0.00784895
-0.00739199
-0.00689185
-0.00634579
-0.00575072
-0.00510313
-0.00439895
-0.00363346
-0.00280125
-0.00189605
-0.000910915
0.000161541
0.00132901
0.00259873
0.00397642
0.00546456
0.00706016
0.00875166
0.0105154
0.0123119
0.0140834
0.0157534
0.0172312
0.0184202
0.0192399
0.0196288
0.0196012
0.019156
0.0184922
0.0174682
0.0167694
-0.0108412
-0.0111411
-0.0115424
-0.0117547
-0.0119109
-0.0119782
-0.0119921
-0.011958
-0.0118893
-0.0117914
-0.0116686
-0.0115223
-0.0113528
-0.0111591
-0.0109399
-0.0106933
-0.0104175
-0.0101104
-0.00976996
-0.00939413
-0.00898075
-0.00852761
-0.0080323
-0.00749217
-0.0069042
-0.00626489
-0.00557009
-0.00481485
-0.00399326
-0.00309829
-0.00212156
-0.00105374
0.00011552
0.00139736
0.00280252
0.00433991
0.0060142
0.00782236
0.00974912
0.0117615
0.0138035
0.0157922
0.0176194
0.0191572
0.0202841
0.0208922
0.0209676
0.0204828
0.0196855
0.0184006
0.0175133
-0.0120536
-0.0123877
-0.0128309
-0.0130577
-0.013219
-0.0132799
-0.0132823
-0.0132338
-0.0131505
-0.013039
-0.0129045
-0.0127485
-0.0125714
-0.0123721
-0.0121489
-0.0119
-0.0116232
-0.0113164
-0.0109776
-0.0106046
-0.0101954
-0.00974806
-0.00926028
-0.0087297
-0.00815359
-0.00752875
-0.00685127
-0.00611637
-0.00531811
-0.0044492
-0.00350057
-0.00246135
-0.00131894
-5.88197e-05
0.00133496
0.00287852
0.00458615
0.00646691
0.00851955
0.0107255
0.0130401
0.0153837
0.0176363
0.0196372