# vtk DataFile Version 2.0
time_insac
ASCII
DATASET STRUCTURED_GRID
DIMENSIONS 51 51 1
POINTS 2601 float
0 0 0
0.02 0 0
0.04 0 0
0.06 0 0
0.08 0 0
0.1 0 0
0.12 0 0
0.14 0 0
0.16 0 0
0.18 0 0
0.2 0 0
0.22 0 0
0.24 0 0
0.26 0 0
0.28 0 0
0.3 0 0
0.32 0 0
0.34 0 0
0.36 0 0
0.38 0 0
0.4 0 0
0.42 0 0
0.44 0 0
0.46 0 0
0.48 0 0
0.5 0 0
0.52 0 0
0.54 0 0
0.56 0 0
0.58 0 0
0.6 0 0
0.62 0 0
0.64 0 0
0.66 0 0
0.68 0 0
0.7 0 0
0.72 0 0
0.74 0 0
0.76 0 0
0.78 0 0
0.8 0 0
0.82 0 0
0.84 0 0
0.86 0 0
0.88 0 0
0.9 0 0
0.92 0 0
0.94 0 0
0.96 0 0
0.98 0 0
1 0 0
0 0.02 0
0.02 0.02 0
0.04 0.02 0
0.06 0.02 0
0.08 0.02 0
0.1 0.02 0
0.12 0.02 0
0.14 0.02 0
0.16 0.02 0
0.18 0.02 0
0.2 0.02 0
0.22 0.02 0
0.24 0.02 0
0.26 0.02 0
0.28 0.02 0
0.3 0.02 0
0.32 0.02 0
0.34 0.02 0
0.36 0.02 0
0.38 0.02 0
0.4 0.02 0
0.42 0.02 0
0.44 0.02 0
0.46 0.02 0
0.48 0.02 0
0.5 0.02 0
0.52 0.02 0
0.54 0.02 0
0.56 0.02 0
0.58 0.02 0
0.6 0.02 0
0.62 0.02 0
0.64 0.02 0
0.66 0.02 0
0.68 0.02 0
0.7 0.02 0
0.72 0.02 0
0.74 0.02 0
0.76 0.02 0
0.78 0.02 0
0.8 0.02 0
0.82 0.02 0
0.84 0.02 0
0.86 0.02 0
0.88 0.02 0
0.9 0.02 0
0.92 0.02 0
0.94 0.02 0
0.96 0.02 0
0.98 0.02 0
1 0.02 0
0 0.04 0
0.02 0.04 0
0.04 0.04 0
0.06 0.04 0
0.08 0.04 0
0.1 0.04 0
0.12 0.04 0
0.14 0.04 0
0.16 0.04 0
0.18 0.04 0
0.2 0.04 0
0.22 0.04 0
0.24 0.04 0
0.26 0.04 0
0.28 0.04 0
0.3 0.04 0
0.32 0.04 0
0.34 0.04 0
0.36 0.04 0
0.38 0.04 0
0.4 0.04 0
0.42 0.04 0
0.44 0.04 0
0.46 0.04 0
0.48 0.04 0
0.5 0.04 0
0.52 0.04 0
0.54 0.04 0
0.56 0.04 0
0.58 0.04 0
0.6 0.04 0
0.62 0.04 0
0.64 0.04 0
0.66 0.04 0
0.68 0.04 0
0.7 0.04 0
0.72 0.04 0
0.74 0.04 0
0.76 0.04 0
0.78 0.04 0
0.8 0.04 0
0.82 0.04 0
0.84 0.04 0
0.86 0.04 0
0.88 0.04 0
0.9 0.04 0
0.92 0.04 0
0.94 0.04 0
0.96 0.04 0
0.98 0.04 0
1 0.04 0
0 0.06 0
0.02 0.06 0
0.04 0.06 0
0.06 0.06 0
0.08 0.06 0
0.1 0.06 0
0.12 0.06 0
0.14 0.06 0
0.16 0.06 0
0.18 0.06 0
0.2 0.06 0
0.22 0.06 0
0.24 0.06 0
0.26 0.06 0
0.28 0.06 0
0.3 0.06 0
0.32 0.06 0
0.34 0.06 0
0.36 0.06 0
0.38 0.06 0
0.4 0.06 0
0.42 0.06 0
0.44 0.06 0
0.46 0.06 0
0.48 0.06 0
0.5 0.06 0
0.52 0.06 0
0.54 0.06 0
0.56 0.06 0
0.58 0.06 0
0.6 0.06 0
0.62 0.06 0
0.64 0.06 0
0.66 0.06 0
0.68 0.06 0
0.7 0.06 0
0.72 0.06 0
0.74 0.06 0
0.76 0.06 0
0.78 0.06 0
0.8 0.06 0
0.82 0.06 0
0.84 0.06 0
0.86 0.06 0
0.88 0.06 0
0.9 0.06 0
0.92 0.06 0
0.94 0.06 0
0.96 0.06 0
0.98 0.06 0
1 0.06 0
0 0.08 0
0.02 0.08 0
0.04 0.08 0
0.06 0.08 0
0.08 0.08 0
0.1 0.08 0
0.12 0.08 0
0.14 0.08 0
0.16 0.08 0
0.18 0.08 0
0.2 0.08 0
0.22 0.08 0
0.24 0.08 0
0.26 0.08 0
0.28 0.08 0
0.3 0.08 0
0.32 0.08 0
0.34 0.08 0
0.36 0.08 0
0.38 0.08 0
0.4 0.08 0
0.42 0.08 0
0.44 0.08 0
0.46 0.08 0
0.48 0.08 0
0.5 0.08 0
0.52 0.08 0
0.54 0.08 0
0.56 0.08 0
0.58 0.08 0
0.6 0.08 0
0.62 0.08 0
0.64 0.08 0
0.66 0.08 0
0.68 0.08 0
0.7 0.08 0
0.72 0.08 0
0.74 0.08 0
0.76 0.08 0
0.78 0.08 0
0.8 0.08 0
0.82 0.08 0
0.84 0.08 0
0.86 0.08 0
0.88 0.08 0
0.9 0.08 0
0.92 0.08 0
0.94 0.08 0
0.96 0.08 0
0.98 0.08 0
1 0.08 0
0 0.1 0
0.02 0.1 0
0.04 0.1 0
0.06 0.1 0
0.08 0.1 0
0.1 0.1 0
0.12 0.1 0
0.14 0.1 0
0.16 0.1 0
0.18 0.1 0
0.2 0.1 0
0.22 0.1 0
0.24 0.1 0
0.26 0.1 0
0.28 0.1 0
0.3 0.1 0
0.32 0.1 0
0.34 0.1 0
0.36 0.1 0
0.38 0.1 0
0.4 0.1 0
0.42 0.1 0
0.44 0.1 0
0.46 0.1 0
0.48 0.1 0
0.5 0.1 0
0.52 0.1 0
0.54 0.1 0
0.56 0.1 0
0.58 0.1 0
0.6 0.1 0
0.62 0.1 0
0.64 0.1 0
0.66 0.1 0
0.68 0.1 0
0.7 0.1 0
0.72 0.1 0
0.74 0.1 0
0.76 0.1 0
0.78 0.1 0
0.8 0.1 0
0.82 0.1 0
0.84 0.1 0
0.86 0.1 0
0.88 0.1 0
0.9 0.1 0
0.92 0.1 0
0.94 0.1 0
0.96 0.1 0
0.98 0.1 0
1 0.1 0
0 0.12 0
0.02 0.12 0
0.04 0.12 0
0.06 0.12 0
0.08 0.12 0
0.1 0.12 0
0.12 0.12 0
0.14 0.12 0
0.16 0.12 0
0.18 0.12 0
0.2 0.12 0
0.22 0.12 0
0.24 0.12 0
0.26 0.12 0
0.28 0.12 0
0.3 0.12 0
0.32 0.12 0
0.34 0.12 0
0.36 0.12 0
0.38 0.12 0
0.4 0.12 0
0.42 0.12 0
0.44 0.12 0
0.46 0.12 0
0.48 0.12 0
0.5 0.12 0
0.52 0.12 0
0.54 0.12 0
0.56 0.12 0
0.58 0.12 0
0.6 0.12 0
0.62 0.12 0
0.64 0.12 0
0.66 0.12 0
0.68 0.12 0
0.7 0.12 0
0.72 0.12 0
0.74 0.12 0
0.76 0.12 0
0.78 0.12 0
0.8 0.12 0
0.82 0.12 0
0.84 0.12 0
0.86 0.12 0
0.88 0.12 0
0.9 0.12 0
0.92 0.12 0
0.94 0.12 0
0.96 0.12 0
0.98 0.12 0
1 0.12 0
0 0.14 0
0.02 0.14 0
0.04 0.14 0
0.06 0.14 0
0.08 0.14 0
0.1 0.14 0
0.12 0.14 0
0.14 0.14 0
0.16 0.14 0
0.18 0.14 0
0.2 0.14 0
0.22 0.14 0
0.24 0.14 0
0.26 0.14 0
0.28 0.14 0
0.3 0.14 0
0.32 0.14 0
0.34 0.14 0
0.36 0.14 0
0.38 0.14 0
0.4 0.14 0
0.42 0.14 0
0.44 0.14 0
0.46 0.14 0
0.48 0.14 0
0.5 0.14 0
0.52 0.14 0
0.54 0.14 0
0.56 0.14 0
0.58 0.14 0
0.6 0.14 0
0.62 0.14 0
0.64 0.14 0
0.66 0.14 0
0.68 0.14 0
0.7 0.14 0
0.72 0.14 0
0.74 0.14 0
0.76 0.14 0
0.78 0.14 0
0.8 0.14 0
0.82 0.14 0
0.84 0.14 0
0.86 0.14 0
0.88 0.14 0
0.9 0.14 0
0.92 0.14 0
0.94 0.14 0
0.96 0.14 0
0.98 0.14 0
1 0.14 0
0 0.16 0
0.02 0.16 0
0.04 0.16 0
0.06 0.16 0
0.08 0.16 0
0.1 0.16 0
0.12 0.16 0
0.14 0.16 0
0.16 0.16 0
0.18 0.16 0
0.2 0.16 0
0.22 0.16 0
0.24 0.16 0
0.26 0.16 0
0.28 0.16 0
0.3 0.16 0
0.32 0.16 0
0.34 0.16 0
0.36 0.16 0
0.38 0.16 0
0.4 0.16 0
0.42 0.16 0
0.44 0.16 0
0.46 0.16 0
0.48 0.16 0
0.5 0.16 0
0.52 0.16 0
0.54 0.16 0
0.56 0.16 0
0.58 0.16 0
0.6 0.16 0
0.62 0.16 0
0.64 0.16 0
0.66 0.16 0
0.68 0.16 0
0.7 0.16 0
0.72 0.16 0
0.74 0.16 0
0.76 0.16 0
0.78 0.16 0
0.8 0.16 0
0.82 0.16 0
0.84 0.16 0
0.86 0.16 0
0.88 0.16 0
0.9 0.16 0
0.92 0.16 0
0.94 0.16 0
0.96 0.16 0
0.98 0.16 0
1 0.16 0
0 0.18 0
0.02 0.18 0
0.04 0.18 0
0.06 0.18 0
0.08 0.18 0
0.1 0.18 0
0.12 0.18 0
0.14 0.18 0
0.16 0.18 0
0.18 0.18 0
0.2 0.18 0
0.22 0.18 0
0.24 0.18 0
0.26 0.18 0
0.28 0.18 0
0.3 0.18 0
0.32 0.18 0
0.34 0.18 0
0.36 0.18 0
0.38 0.18 0
0.4 0.18 0
0.42 0.18 0
0.44 0.18 0
0.46 0.18 0
0.48 0.18 0
0.5 0.18 0
0.52 0.18 0
0.54 0.18 0
0.56 0.18 0
0.58 0.18 0
0.6 0.18 0
0.62 0.18 0
0.64 0.18 0
0.66 0.18 0
0.68 0.18 0
0.7 0.18 0
0.72 0.18 0
0.74 0.18 0
0.76 0.18 0
0.78 0.18 0
0.8 0.18 0
0.82 0.18 0
0.84 0.18 0
0.86 0.18 0
0.88 0.18 0
0.9 0.18 0
0.92 0.18 0
0.94 0.18 0
0.96 0.18 0
0.98 0.18 0
1 0.18 0
0 0.2 0
0.02 0.2 0
0.04 0.2 0
0.06 0.2 0
0.08 0.2 0
0.1 0.2 0
0.12 0.2 0
0.14 0.2 0
0.16 0.2 0
0.18 0.2 0
0.2 0.2 0
0.22 0.2 0
0.24 0.2 0
0.26 0.2 0
0.28 0.2 0
0.3 0.2 0
0.32 0.2 0
0.34 0.2 0
0.36 0.2 0
0.38 0.2 0
0.4 0.2 0
0.42 0.2 0
0.44 0.2 0
0.46 0.2 0
0.48 0.2 0
0.5 0.2 0
0.52 0.2 0
0.54 0.2 0
0.56 0.2 0
0.58 0.2 0
0.6 0.2 0
0.62 0.2 0
0.64 0.2 0
0.66 0.2 0
0.68 0.2 0
0.7 0.2 0
0.72 0.2 0
0.74 0.2 0
0.76 0.2 0
0.78 0.2 0
0.8 0.2 0
0.82 0.2 0
0.84 0.2 0
0.86 0.2 0
0.88 0.2 0
0.9 0.2 0
0.92 0.2 0
0.94 0.2 0
0.96 0.2 0
0.98 0.2 0
1 0.2 0
0 0.22 0
0.02 0.22 0
0.04 0.22 0
0.06 0.22 0
0.08 0.22 0
0.1 0.22 0
0.12 0.22 0
0.14 0.22 0
0.16 0.22 0
0.18 0.22 0
0.2 0.22 0
0.22 0.22 0
0.24 0.22 0
0.26 0.22 0
0.28 0.22 0
0.3 0.22 0
0.32 0.22 0
0.34 0.22 0
0.36 0.22 0
0.38 0.22 0
0.4 0.22 0
0.42 0.22 0
0.44 0.22 0
0.46 0.22 0
0.48 0.22 0
0.5 0.22 0
0.52 0.22 0
0.54 0.22 0
0.56 0.22 0
0.58 0.22 0
0.6 0.22 0
0.62 0.22 0
0.64 0.22 0
0.66 0.22 0
0.68 0.22 0
0.7 0.22 0
0.72 0.22 0
0.74 0.22 0
0.76 0.22 0
0.78 0.22 0
0.8 0.22 0
0.82 0.22 0
0.84 0.22 0
0.86 0.22 0
0.88 0.22 0
0.9 0.22 0
0.92 0.22 0
0.94 0.22 0
0.96 0.22 0
0.98 0.22 0
1 0.22 0
0 0.24 0
0.02 0.24 0
0.04 0.24 0
0.06 0.24 0
0.08 0.24 0
0.1 0.24 0
0.12 0.24 0
0.14 0.24 0
0.16 0.24 0
0.18 0.24 0
0.2 0.24 0
0.22 0.24 0
0.24 0.24 0
0.26 0.24 0
0.28 0.24 0
0.3 0.24 0
0.32 0.24 0
0.34 0.24 0
0.36 0.24 0
0.38 0.24 0
0.4 0.24 0
0.42 0.24 0
0.44 0.24 0
0.46 0.24 0
0.48 0.24 0
0.5 0.24 0
0.52 0.24 0
0.54 0.24 0
0.56 0.24 0
0.58 0.24 0
0.6 0.24 0
0.62 0.24 0
0.64 0.24 0
0.66 0.24 0
0.68 0.24 0
0.7 0.24 0
0.72 0.24 0
0.74 0.24 0
0.76 0.24 0
0.78 0.24 0
0.8 0.24 0
0.82 0.24 0
0.84 0.24 0
0.86 0.24 0
0.88 0.24 0
0.9 0.24 0
0.92 0.24 0
0.94 0.24 0
0.96 0.24 0
0.98 0.24 0
1 0.24 0
0 0.26 0
0.02 0.26 0
0.04 0.26 0
0.06 0.26 0
0.08 0.26 0
0.1 0.26 0
0.12 0.26 0
0.14 0.26 0
0.16 0.26 0
0.18 0.26 0
0.2 0.26 0
0.22 0.26 0
0.24 0.26 0
0.26 0.26 0
0.28 0.26 0
0.3 0.26 0
0.32 0.26 0
0.34 0.26 0
0.36 0.26 0
0.38 0.26 0
0.4 0.26 0
0.42 0.26 0
0.44 0.26 0
0.46 0.26 0
0.48 0.26 0
0.5 0.26 0
0.52 0.26 0
0.54 0.26 0
0.56 0.26 0
0.58 0.26 0
0.6 0.26 0
0.62 0.26 0
0.64 0.26 0
0.66 0.26 0
0.68 0.26 0
0.7 0.26 0
0.72 0.26 0
0.74 0.26 0
0.76 0.26 0
0.78 0.26 0
0.8 0.26 0
0.82 0.26 0
0.84 0.26 0
0.86 0.26 0
0.88 0.26 0
0.9 0.26 0
0.92 0.26 0
0.94 0.26 0
0.96 0.26 0
0.98 0.26 0
1 0.26 0
0 0.28 0
0.02 0.28 0
0.04 0.28 0
0.06 0.28 0
0.08 0.28 0
0.1 0.28 0
0.12 0.28 0
0.14 0.28 0
0.16 0.28 0
0.18 0.28 0
0.2 0.28 0
0.22 0.28 0
0.24 0.28 0
0.26 0.28 0
0.28 0.28 0
0.3 0.28 0
0.32 0.28 0
0.34 0.28 0
0.36 0.28 0
0.38 0.28 0
0.4 0.28 0
0.42 0.28 0
0.44 0.28 0
0.46 0.28 0
0.48 0.28 0
0.5 0.28 0
0.52 0.28 0
0.54 0.28 0
0.56 0.28 0
0.58 0.28 0
0.6 0.28 0
0.62 0.28 0
0.64 0.28 0
0.66 0.28 0
0.68 0.28 0
0.7 0.28 0
0.72 0.28 0
0.74 0.28 0
0.76 0.28 0
0.78 0.28 0
0.8 0.28 0
0.82 0.28 0
0.84 0.28 0
0.86 0.28 0
0.88 0.28 0
0.9 0.28 0
0.92 0.28 0
0.94 0.28 0
0.96 0.28 0
0.98 0.28 0
1 0.28 0
0 0.3 0
0.02 0.3 0
0.04 0.3 0
0.06 0.3 0
0.08 0.3 0
0.1 0.3 0
0.12 0.3 0
0.14 0.3 0
0.16 0.3 0
0.18 0.3 0
0.2 0.3 0
0.22 0.3 0
0.24 0.3 0
0.26 0.3 0
0.28 0.3 0
0.3 0.3 0
0.32 0.3 0
0.34 0.3 0
0.36 0.3 0
0.38 0.3 0
0.4 0.3 0
0.42 0.3 0
0.44 0.3 0
0.46 0.3 0
0.48 0.3 0
0.5 0.3 0
0.52 0.3 0
0.54 0.3 0
0.56 0.3 0
0.58 0.3 0
0.6 0.3 0
0.62 0.3 0
0.64 0.3 0
0.66 0.3 0
0.68 0.3 0
0.7 0.3 0
0.72 0.3 0
0.74 0.3 0
0.76 0.3 0
0.78 0.3 0
0.8 0.3 0
0.82 0.3 0
0.84 0.3 0
0.86 0.3 0
0.88 0.3 0
0.9 0.3 0
0.92 0.3 0
0.94 0.3 0
0.96 0.3 0
0.98 0.3 0
1 0.3 0
0 0.32 0
0.02 0.32 0
0.04 0.32 0
0.06 0.32 0
0.08 0.32 0
0.1 0.32 0
0.12 0.32 0
0.14 0.32 0
0.16 0.32 0
0.18 0.32 0
0.2 0.32 0
0.22 0.32 0
0.24 0.32 0
0.26 0.32 0
0.28 0.32 0
0.3 0.32 0
0.32 0.32 0
0.34 0.32 0
0.36 0.32 0
0.38 0.32 0
0.4 0.32 0
0.42 0.32 0
0.44 0.32 0
0.46 0.32 0
0.48 0.32 0
0.5 0.32 0
0.52 0.32 0
0.54 0.32 0
0.56 0.32 0
0.58 0.32 0
0.6 0.32 0
0.62 0.32 0
0.64 0.32 0
0.66 0.32 0
0.68 0.32 0
0.7 0.32 0
0.72 0.32 0
0.74 0.32 0
0.76 0.32 0
0.78 0.32 0
0.8 0.32 0
0.82 0.32 0
0.84 0.32 0
0.86 0.32 0
0.88 0.32 0
0.9 0.32 0
0.92 0.32 0
0.94 0.32 0
0.96 0.32 0
0.98 0.32 0
1 0.32 0
0 0.34 0
0.02 0.34 0
0.04 0.34 0
0.06 0.34 0
[...]
POINT_DATA 2601
SCALARS pressure float 1
LOOKUP_TABLE default
0.00067262
0.000653211
0.000609652
0.000560595
0.000517921
0.000491154
0.000483789
0.000497783
0.000533193
0.00058959
0.000666197
0.000762232
0.000876942
0.00100965
0.00115971
0.0013265
0.00150936
0.00170762
0.00192052
0.0021472
0.00238674
0.00263811
0.00290014
0.0031716
0.00345108
0.00373711
0.00402807
0.00432223
0.00461776
0.00491273
0.00520512
0.00549282
0.00577369
0.0060455
0.00630604
0.00655308
0.00678438
0.00699775
0.00719106
0.00736222
0.00750922
0.00763021
0.00772355
0.00778794
0.00782285
0.00782865
0.00780816
0.00776605
0.00771388
0.00766531
0.007643
0.000692119
0.000672638
0.000633309
0.00059271
0.000557971
0.000537681
0.000534744
0.000551333
0.000587817
0.000644153
0.000719869
0.00081442
0.000927216
0.00105768
0.00120523
0.00136927
0.00154918
0.00174427
0.00195381
0.00217694
0.00241276
0.00266022
0.00291819
0.00318543
0.00346056
0.00374211
0.00402847
0.00431796
0.00460874
0.00489892
0.00518649
0.0054694
0.0057455
0.00601262
0.00626859
0.00651119
0.00673827
0.00694768
0.00713737
0.00730535
0.0074498
0.00756906
0.00766177
0.007727
0.00776463
0.00777534
0.00776217
0.00772908
0.0076866
0.007643
0.00762073
0.000736101
0.000712035
0.000672365
0.000640129
0.00061393
0.000601317
0.000603839
0.000623762
0.000661672
0.000717934
0.000792431
0.000884914
0.000995004
0.00112227
0.00126622
0.00142632
0.001602
0.00179258
0.00199735
0.00221549
0.00244608
0.00268811
0.00294047
0.00320192
0.00347111
0.0037466
0.00402681
0.00431005
0.00459456
0.00487844
0.00515973
0.0054364
0.00570635
0.00596746
0.00621758
0.00645455
0.00667628
0.00688071
0.00706587
0.00722994
0.00737126
0.00748845
0.00758052
0.0076469
0.00768793
0.00770451
0.00769977
0.00767618
0.00764313
0.00759947
0.0075723
0.000786046
0.000752908
0.000703967
0.000671354
0.000646248
0.000636022
0.000640624
0.000662057
0.000700671
0.000756882
0.000830656
0.000921868
0.00103025
0.00115545
0.00129707
0.00145462
0.00162756
0.00181527
0.00201705
0.00223211
0.00245955
0.00269838
0.00294751
0.00320571
0.00347167
0.00374394
0.00402096
0.00430108
0.00458251
0.00486341
0.0051418
0.00541567
0.00568294
0.00594148
0.00618916
0.00642385
0.00664346
0.00684596
0.00702944
0.00719212
0.00733244
0.0074491
0.00754123
0.00760835
0.00765083
0.00766937
0.00766684
0.00764407
0.00761032
0.00755655
0.00751962
0.000829981
0.000787911
0.000729029
0.000694337
0.000668653
0.000659444
0.000665137
0.000687447
0.000726418
0.000782439
0.000855502
0.000945557
0.00105241
0.0011758
0.00131538
0.00147073
0.00164134
0.00182663
0.00202595
0.00223851
0.00246346
0.00269982
0.00294653
0.00320238
0.00346607
0.00373617
0.00401114
0.00428933
0.00456897
0.00484819
0.00512506
0.00539754
0.00566355
0.00592096
0.00616764
0.00640144
0.00662028
0.00682213
0.0070051
0.00716743
0.0073076
0.00742436
0.00751689
0.00758472
0.00762819
0.0076477
0.00764586
0.007622
0.00758562
0.00752117
0.00747481
0.000857979
0.000808003
0.000739485
0.00070116
0.000673148
0.000663291
0.000668789
0.000691108
0.000729955
0.00078563
0.000858077
0.000947265
0.00105304
0.00117518
0.00131339
0.0014673
0.00163645
0.00182029
0.00201818
0.00222941
0.00245312
0.00268838
0.00293412
0.00318919
0.00345227
0.00372196
0.00399673
0.00427491
0.00455476
0.00483439
0.00511185
0.00538509
0.005652
0.00591044
0.00615823
0.00639321
0.00661324
0.0068163
0.00700043
0.00716388
0.0073051
0.00742284
0.00751621
0.00758469
0.00762852
0.00764777
0.00764487
0.007618
0.00757721
0.00750242
0.00744783
0.000865837
0.000809541
0.000732954
0.000690906
0.00066017
0.000649037
0.000653774
0.000675665
0.00071413
0.000769373
0.000841277
0.000929807
0.00103483
0.00115615
0.00129352
0.00144661
0.00161498
0.00179815
0.00199549
0.00220633
0.00242984
0.00266512
0.00291112
0.0031667
0.00343057
0.00370132
0.00397744
0.00425725
0.00453899
0.00482078
0.00510061
0.00537643
0.00564607
0.00590735
0.00615804
0.00639592
0.00661881
0.0068246
0.00701131
0.0071771
0.0073204
0.00743987
0.00753459
0.00760391
0.00764798
0.0076666
0.00766209
0.00763183
0.00758654
0.00750307
0.00744193
0.000850781
0.000789534
0.000706328
0.000660694
0.000627095
0.000614293
0.000617887
0.00063905
0.000676968
0.000731763
0.000803253
0.000891388
0.000996035
0.00111704
0.00125416
0.00140711
0.00157549
0.00175885
0.00195661
0.0021681
0.00239256
0.00262909
0.00287668
0.00313418
0.00340034
0.00367376
0.00395289
0.00423609
0.00452154
0.00480734
0.00509147
0.0053718
0.00564612
0.00591218
0.00616767
0.0064103
0.00663779
0.00684795
0.00703872
0.00720817
0.00735462
0.00747668
0.00757331
0.00764377
0.00768811
0.00770593
0.00769953
0.00766578
0.00761611
0.00752538
0.00745904
0.000811871
0.000746724
0.000658117
0.000609233
0.000572903
0.000558337
0.000560662
0.00058099
0.000618333
0.000672749
0.000743999
0.00083202
0.00093668
0.00105784
0.00119529
0.00134876
0.00151791
0.0017023
0.0019014
0.00211458
0.00234109
0.00258007
0.00283053
0.00309135
0.00336127
0.0036389
0.00392269
0.00421097
0.00450192
0.00479358
0.00508388
0.00537063
0.00565155
0.0059243
0.00618647
0.00643567
0.00666951
0.00688568
0.00708198
0.00725639
0.00740712
0.00753264
0.00763185
0.00770388
0.00774872
0.00776583
0.00775758
0.0077205
0.00766678
0.00756989
0.00749928
0.000748641
0.000680262
0.000587059
0.000535207
0.0004963
0.000479974
0.00048101
0.000500497
0.00053732
0.000591487
0.000662717
0.000750936
0.000856012
0.00097782
0.00111618
0.00127085
0.00144153
0.0016278
0.00182918
0.00204507
0.00227476
0.0025174
0.00277204
0.00303757
0.00331274
0.00359616
0.00388628
0.00418139
0.00447965
0.00477906
0.00507746
0.00537261
0.00566213
0.00594356
0.00621438
0.00647206
0.00671406
0.00693794
0.00714135
0.00732211
0.0074783
0.00760827
0.00771079
0.00778491
0.00783058
0.00784716
0.00783716
0.00779693
0.00773937
0.00763692
0.00756254
0.000660963
0.000589699
0.000492339
0.000437717
0.000396372
0.000378345
0.000378143
0.000396859
0.000433276
0.000487372
0.000558832
0.000647575
0.000753476
0.000876425
0.00101627
0.0011728
0.00134574
0.00153473
0.00173931
0.00195892
0.00219287
0.00244038
0.00270048
0.00297211
0.00325402
0.00354481
0.00384292
0.00414664
0.00445406
0.00476313
0.00507163
0.00537721
0.00567738
0.00596956
0.00625107
0.00651923
0.00677132
0.00700472
0.00721689
0.00740549
0.00756843
0.0077039
0.00781057
0.0078874
0.00793429
0.00795061
0.00793899
0.0078957
0.00783442
0.00772657
0.00764857
0.000548669
0.000474613
0.000373225
0.000315918
0.000272209
0.00025254
0.000251174
0.00026922
0.000305379
0.000359604
0.000431559
0.00052116
0.000628289
0.000752859
0.000894743
0.00105377
0.00122969
0.0014222
0.00163087
0.00185518
0.00209449
0.00234803
0.00261488
0.00289398
0.00318411
0.00348387
0.00379168
0.00410579
0.00442426
0.00474498
0.00506563
0.00538376
0.00569675
0.00600186
0.00629624
0.00657701
0.00684126
0.00708613
0.00730887
0.00750694
0.00767803
0.00782018
0.00793193
0.00801214
0.00806073
0.00807703
0.00806392
0.00801758
0.00795252
0.00783909
0.00775731
0.000411481
0.000334546
0.000229029
0.000169021
0.000122955
0.000101683
9.92269e-05
0.000116715
0.000152772
0.000207336
0.00028005
0.000370833
0.000479581
0.00060623
0.000750684
0.00091281
0.00109241
0.0012892
0.00150282
0.00173278
0.00197849
0.00223921
0.00251406
0.002802
0.00310182
0.00341213
0.00373135
0.00405768
0.00438915
0.00472355
0.0050585
0.0053914
0.00571949
0.00603985
0.00634944
0.00664512
0.00692376
0.00718223
0.00741753
0.00762685
0.00780766
0.0079578
0.00807568
0.00816005
0.00821083
0.0082274
0.00821286
0.00816337
0.00809432
0.00797487
0.00788896
0.000248938
0.000168909
5.89954e-05
-3.81877e-06
-5.2298e-05
-7.51645e-05
-7.8656e-05
-6.16211e-05
-2.55138e-05
2.95897e-05
0.000103315
0.000195587
0.000306318
0.000435474
0.000582993
0.000748785
0.000932696
0.0011345
0.00135387
0.00159039
0.00184349
0.0021125
0.00239657
0.00269469
0.00300567
0.00332813
0.00366047
0.00400089
0.00434734
0.00469755
0.00504903
0.00539905
0.00574468
0.00608278
0.00641008
0.00672319
0.00701867
0.0072931
0.00754315
0.00776572
0.00795801
0.00811762
0.00824278
0.00833216
0.0083857
0.00840279
0.00838686
0.00833401
0.00826063
0.0081345
0.00804398
6.03805e-05
-2.30407e-05
-0.000137734
-0.000203528
-0.000254534
-0.000279021
-0.000283515
-0.000266845
-0.000230552
-0.000174726
-9.9761e-05
-5.72118e-06
0.000107325
0.000239374
0.000390407
0.00056038
0.000749193
0.000956674
0.00118256
0.00142647
0.00168793
0.00196628
0.00226074
0.00257035
0.00289393
0.00323012
0.00357732
0.0039337
0.00429718
0.0046654
0.00503575
0.00540537
0.00577111
0.00612964
0.0064774
0.00681068
0.00712572
0.00741871
0.00768599
0.00792406
0.00812981
0.00830056
0.00843433
0.00852968
0.00858657
0.00860446
0.00858711
0.0085306
0.00845244
0.0083188
0.00822308
-0.00015504
-0.000242211
-0.000362153
-0.000431153
-0.000484849
-0.000511014
-0.000516506
-0.000500137
-0.000463545
-0.000406841
-0.000330436
-0.000234386
-0.000118736
1.65466e-05
0.000171489
0.000346101
0.000540342
0.000754102
0.000987182
0.00123928
0.00150996
0.00179866
0.00210464
0.00242698
0.00276456
0.00311604
0.00347984
0.00385409
0.00423668
0.00462518
0.00501686
0.00540869
0.00579734
0.00617919
0.00655039
0.00690688
0.00724448
0.00755899
0.00784626
0.00810239
0.00832385
0.00850764
0.00865153
0.00875394
0.00881486
0.00883382
0.00881499
0.00875441
0.00867089
0.00852878
0.00842716
-0.000398357
-0.000489679
-0.000615401
-0.000687882
-0.000744469
-0.000772402
-0.000778915
-0.000762808
-0.000725832
-0.000668124
-0.000590115
-0.000491853
-0.000373359
-0.000234558
-7.53712e-05
0.000104271
0.000304393
0.000524957
0.000765841
0.00102682
0.00130753
0.00160749
0.00192603
0.0022623
0.00261524
0.00298353
0.00336563
0.00375968
0.00416351
0.00457463
0.00499021
0.00540703
0.00582155
0.00622987
0.00662778
0.00701083
0.00737436
0.00771367
0.0080241
0.0083012
0.00854097
0.00873998
0.00889572
0.00900644
0.00907214
0.00909246
0.00907202
0.00900689
0.00891731
0.0087656
0.0086573
-0.000670781
-0.000766692
-0.000898781
-0.000975054
-0.00103477
-0.00106459
-0.00107217
-0.00105632
-0.0010189
-0.000960095
-0.000880359
-0.000779731
-0.000658204
-0.00051566
-0.000351963
-0.000166977
3.93988e-05
0.000267207
0.00051641
0.000786868
0.00107832
0.00139037
0.00172242
0.00207373
0.0024433
0.00282988
0.00323196
0.0036477
0.00407492
0.00451107
0.0049532
0.00539794
0.00584151
0.0062797
0.00670792
0.00712124
0.00751449
0.00788234
0.00821952
0.00852095
0.00878202
0.0089988
0.0091684
0.00928886
0.00936019
0.00938217
0.00935996
0.00928965
0.00919319
0.00903062
0.00891476
-0.000973697
-0.00107467
-0.00121376
-0.00129418
-0.00135729
-0.00138914
-0.00139787
-0.00138228
-0.00134439
-0.00128443
-0.00120289
-0.00109979
-0.000975098
-0.000828654
-0.000660255
-0.000469693
-0.000256783
-2.13922e-05
0.000236539
0.000516974
0.000819758
0.00114459
0.00149101
0.00185836
0.00224573
0.00265198
0.00307565
0.00351495
0.0039677
0.00443132
0.00490276
0.0053785
0.00585451
0.00632625
0.00678872
0.00723644
0.00766364
0.00806429
0.00843234
0.00876197
0.00904784
0.00928536
0.00947117
0.00960304
0.009681
0.00970496
0.00968075
0.00960454
0.00950022
0.00932531
0.0092009
-0.00130866
-0.00141521
-0.001562
-0.00164694
-0.00171375
-0.0017478
-0.00175777
-0.00174248
-0.00170413
-0.00164299
-0.00155959
-0.00145396
-0.00132604
-0.00117561
-0.0010024
-0.000806118
-0.000586495
-0.000343292
-7.63426e-05
0.000214435
0.000529007
0.000867203
0.00122869
0.00161293
0.00201915
0.00244633
0.00289309
0.00335774
0.00383812
0.00433165
0.00483522
0.00534516
0.0058572
0.00636647
0.00686749
0.00735422
0.00782014
0.00825842
0.00866212
0.00902447
0.00933921
0.00960097
0.00980579
0.00995105
0.0100368
0.0100631
0.0100366
0.00995357
0.00984023
0.00965128
0.00951719
-0.00167742
-0.00179011
-0.00194535
-0.00203522
-0.00210606
-0.0021425
-0.00215382
-0.00213888
-0.00210009
-0.00203777
-0.00195252
-0.00184436
-0.0017132
-0.00155877
-0.00138072
-0.00117868
-0.000952275
-0.000701156
-0.000425032
-0.000123693
0.000202968
0.00055493
0.000932008
0.00133383
0.00175978
0.00220897
0.00268019
0.00317185
0.00368187
0.00420772
0.00474625
0.00529368
0.00584553
0.00639657
0.00694085
0.00747166
0.00798169
0.00846314
0.008908
0.00930834
0.00965679
0.00994697
0.0101741
0.0103351
0.01043
0.0104591
0.0104299
0.010339
0.0102152
0.0100103
0.00986518
-0.0020819
-0.00220133
-0.00236585
-0.00246111
-0.00253634
-0.00257537
-0.00258817
-0.00257365
-0.00253446
-0.002471
-0.00238393
-0.00227328
-0.00213894
-0.00198056
-0.00179774
-0.00159
-0.00135686
-0.00109785
-0.000812544
-0.000500589
-0.000161716
0.00020422
0.000597218
0.00101709
0.00146341
0.0019355
0.00243233
0.00295246
0.00349399
0.00405444
0.00463072
0.00521897
0.00581453
0.00641186
0.00700448
0.007585
0.00814519
0.00867614
0.00916854
0.00961309
0.010001
0.0103246
0.0105781
0.0107578
0.0108635
0.0108958
0.0108634
0.0107633
0.0106273
0.010404
0.0102465
-0.00252424
-0.0026511
-0.00282581
-0.00292695
-0.00300696
-0.00304879
-0.0030632
-0.00304917
-0.00300963
-0.00294507
-0.00285625
-0.0027432
-0.00260577
-0.00244358
-0.00225614
-0.00204286
-0.00180316
-0.00153643
-0.0012421
-0.00091966
-0.000568657
-0.000188758
0.000220241
0.000658374
0.00112546
0.00162104
0.00214433
0.00269414
0.00326877
0.00386592
0.00448259
0.00511494
0.0057582
0.00640653
0.00705295
0.00768935
0.00830647
0.00889414
0.00944152
0.00993761
0.0103719
0.010735
0.0110198
0.0112216
0.0113402
0.0113764
0.0113402
0.0112291
0.0110789
0.0108345
0.0106625
-0.00300681
-0.00314186
-0.00332777
-0.00343534
-0.00352053
-0.00356538
-0.00358153
-0.00356805
-0.0035282
-0.00346261
-0.00337211
-0.00325676
-0.00311641
-0.00295061
-0.00275878
-0.00254024
-0.00229428
-0.00202015
-0.00171713
-0.00138452
-0.0010217
-0.000628101
-0.000203299
0.000252998
0.000740882
0.0012602
0.00181046
0.00239079
0.00299977
0.00363538
0.00429482
0.00497438
0.00566926
0.0063734
0.00707939
0.00777834
0.00845995
0.00911256
0.00972356
0.0102799
0.0107688
0.0111788
0.011501
0.0117295
0.0118636
0.0119044
0.0118636
0.0117395
0.0115724
0.0113033
0.0111149
-0.00353227
-0.00367636
-0.00387461
-0.00398918
-0.00408
-0.00412807
-0.00414605
-0.00413316
-0.00409303
-0.00402643
-0.00393434
-0.00381683
-0.00367375
-0.00350459
-0.00330869
-0.00308526
-0.00283346
-0.0025524
-0.0022412
-0.00189897
-0.00152487
-0.00111813
-0.000678046
-0.000204042
0.000304291
0.000847143
0.00142441
0.0020356
0.0026797
0.00335506
0.00405923
0.00478875
0.00553894
0.00630366
0.00707514
0.00784381
0.00859819
0.00932506
0.0100097
0.0106366
0.0111901
0.0116562
0.0120235
0.0122843
0.0124373
0.0124838
0.0124374
0.0122977
0.0121103
0.0118123
0.0116046
-0.00410354
-0.00425765
-0.00446952
-0.00459174
-0.00468864
-0.00474011
-0.00475999
-0.00474767
-0.00470723
-0.00463963
-0.004546
-0.00442647
-0.00428086
-0.00410864
-0.00390904
-0.00368119
-0.00342409
-0.00313673
-0.00281803
-0.00246693
-0.00208238
-0.00166335
-0.00120886
-0.000718016
-0.000190054
0.00037562
0.000979342
0.00162112
0.00230044
0.00301617
0.00376638
0.00454803
0.00535675
0.00618653
0.00702941
0.00787521
0.00871135
0.00952288
0.0102927
0.0110023
0.0116328
0.0121664
0.0125885
0.012889
0.0130654
0.0131191
0.0130661
0.0129073
0.0126954
0.0123628
0.0121323
-0.00472392
-0.00488919
-0.00511616
-0.00524672
-0.00535015
-0.00540517
-0.00542693
-0.00541507
-0.0053742
-0.00530554
-0.00521037
-0.00508891
-0.00494099
-0.00476601
-0.00456315
-0.0043314
-0.00406966
-0.00377674
-0.00345142
-0.00309244
-0.00269852
-0.00226837
-0.00180074
-0.00129438
-0.000748142
-0.000160977
0.000467966
0.00113926
0.00185306
0.0026089
0.00340552
0.00424056
0.00511024
0.00600892
0.00692871
0.00785906
0.00878641
0.00969404
0.0105623
0.011369
0.0120913
0.0127066
0.0131962
0.0135461
0.0137522
0.0138153
0.0137545
0.0135725
0.0133306
0.0129561
0.0126981
-0.00539715
-0.00557489
-0.00581865
-0.00595831
-0.00606873
-0.00612734
-0.00615086
-0.00613923
-0.0060977
-0.00602778
-0.00593099
-0.00580763
-0.00565755
-0.00548011
-0.00527442
-0.00503936
-0.0047737
-0.00447611
-0.0041452
-0.00377953
-0.00337758
-0.00293783
-0.00245872
-0.00193867
-0.0013761
-0.00076947
-0.000117365
0.000581453
0.00132792
0.00212241
0.00296457
0.00385298
0.00478476
0.00575503
0.00675636
0.00777819
0.00880625
0.00982218
0.0108035
0.0117243
0.0125564
0.0132714
0.0138447
0.0142573
0.0145018
0.0145783
0.0145088
0.0142983
0.0140189
0.0135927
0.0133009
-0.00612747
-0.00631925
-0.00658176
-0.00673133
-0.00684917
-0.0069113
-0.00693628
-0.00692445
-0.00688183
-0.00681029
-0.00671164
-0.00658629
-0.00643412
-0.00625448
-0.00604637
-0.00580859
-0.00553979
-0.0052385
-0.00490316
-0.00453216
-0.00412378
-0.00367627
-0.00318776
-0.00265634
-0.00208001
-0.00145673
-0.000784453
-6.12128e-05
0.000714817
0.00154503
0.00243018
0.00337015
0.00436332
0.00540604
0.00649189
0.00761086
0.00874848
0.00988513
0.0109957
0.0120498
0.0130133
0.0138506
0.0145291
0.0150224
0.0153184
0.0154145
0.015336
0.0150905
0.0147643
0.0142729
0.0139383
-0.00691976
-0.00712744
-0.00741102
-0.00757137
-0.007697
-0.00776239
-0.00778826
-0.00777552
-0.00773111
-0.00765735
-0.00755638
-0.00742877
-0.00727445
-0.00709273
-0.00688255
-0.00664261
-0.00637145
-0.00606746
-0.00572895
-0.00535414
-0.00494115
-0.00448799
-0.00399255
-0.00345259
-0.00286573
-0.00222942
-0.001541
-0.0007977
3.25655e-06
0.000864443
0.00178798
0.00277531
0.00382655
0.00493987
0.00611054
0.00732989
0.0085841
0.009853
0.0111092
0.0123181
0.0134388
0.0144265
0.0152384
0.0158378
0.0162044
0.0163307
0.016245
0.0159572
0.0155719
0.0149963
0.0146061
-0.00777971
-0.00800556
-0.00831295
-0.00848499
-0.00861864
-0.00868673
-0.00871259
-0.00869784
-0.00865056
-0.00857361
-0.00846957
-0.00833917
-0.00818241
-0.00799857
-0.00778654
-0.00754491
-0.00727211
-0.00696642
-0.00662602
-0.006249
-0.00583334
-0.00537689
-0.00487732
-0.00433213
-0.00373859
-0.00309371
-0.00239423
-0.00163661
-0.000817096
6.8199e-05
0.00102295
0.00205042
0.00315295
0.00433115
0.00558285
0.00690178
0.00827598
0.00968598
0.0111033
0.0124895
0.0137966
0.0149695
0.015952
0.0166927
0.0171589
0.0173339
0.0172469
0.0169091
0.016449
0.0157629
0.0152988
-0.00871402
-0.00896081
-0.0092953
-0.00947994
-0.00962166
-0.00969145
-0.00971587
-0.00969746
-0.0096457
-0.00956413
-0.00945585
-0.00932177
-0.00916199
-0.00897576
-0.00876189
-0.00851887
-0.00824502
-0.00793853
-0.00759748
-0.00721986
-0.00680355
-0.00634629
-0.00584563
-0.00529889
-0.00470308
-0.00405485
-0.00335045
-0.00258565
-0.00175577
-0.000855606
0.000120179
0.00117688
0.00231947
0.00355164
0.00487473
0.00628617
0.00777749
0.00933187
0.0109217
0.0125063
0.0140315
0.015431
0.0166322
0.0175638
0.0181738
0.0184288
0.018355
0.0179613
0.0174076
0.0165745
0.0160099
-0.00973071
-0.0100019
-0.0103674
-0.0105656
-0.010715
-0.0107849
-0.0108057
-0.0107812
-0.0107227
-0.0106344
-0.0105202
-0.0103811
-0.0102173
-0.010028
-0.00981204
-0.00956769
-0.00929318
-0.00898662
-0.008646
-0.00826927
-0.00785427
-0.00739871
-0.0069001
-0.00635571
-0.00576242
-0.00511671
-0.00441447
-0.00365097
-0.00282074
-0.00191747
-0.000934146
0.000136664
0.00130271
0.00257131
0.00394824
0.00543606
0.00703181
0.00872399
0.010489
0.0122873
0.014061
0.0157335
0.0172137
0.0184047
0.0192253
0.0196135
0.0195837
0.0191347
0.0184664
0.0174365
0.0167342
-0.0108395
-0.0111394
-0.0115408
-0.0117532
-0.0119095
-0.0119769
-0.0119909
-0.0119569
-0.0118882
-0.0117904
-0.0116677
-0.0115217
-0.0113524
-0.0111591
-0.0109403
-0.0106943
-0.0104192
-0.010113
-0.00977366
-0.00939908
-0.00898713
-0.00853561
-0.0080421
-0.00750397
-0.00691817
-0.0062812
-0.00558887
-0.00483622
-0.00401729
-0.00312503
-0.00215099
-0.00108578
8.09899e-05
0.00136056
0.00276375
0.00429957
0.00597281
0.00778059
0.00970776
0.0117215
0.0137658
0.0157578
0.0175887
0.0191302
0.0202601
0.0208695
0.0209441
0.0204562
0.0196544
0.0183628
0.017471
-0.0120525
-0.0123867
-0.0128299
-0.0130567
-0.0132181
-0.0132791
-0.0132816
-0.0132331
-0.0131499
-0.0130385
-0.0129041
-0.0127483
-0.0125714
-0.0123724
-0.0121497
-0.0119013
-0.0116253
-0.0113195
-0.0109818
-0.0106102
-0.0102026
-0.00975711
-0.00927141
-0.00874316
-0.00816964
-0.00754761
-0.00687318
-0.00614153
-0.00534672
-0.00448142
-0.00353652
-0.0025011
-0.0013625
-0.00010613
0.00128406
0.00282433
0.00452915
0.00640784
0.00845946
0.0106657
0.0129823
0.0153295
0.0175871
0.0195939