# vtk DataFile Version 2.0
t_insac_ib
ASCII
DATASET STRUCTURED_GRID
DIMENSIONS 101 101 1
POINTS 10201 float
0 0 0
0.01 0 0
0.02 0 0
0.03 0 0
0.04 0 0
0.05 0 0
0.06 0 0
0.07 0 0
0.08 0 0
0.09 0 0
0.1 0 0
0.11 0 0
0.12 0 0
0.13 0 0
0.14 0 0
0.15 0 0
0.16 0 0
0.17 0 0
0.18 0 0
0.19 0 0
0.2 0 0
0.21 0 0
0.22 0 0
0.23 0 0
0.24 0 0
0.25 0 0
0.26 0 0
0.27 0 0
0.28 0 0
0.29 0 0
0.3 0 0
0.31 0 0
0.32 0 0
0.33 0 0
0.34 0 0
0.35 0 0
0.36 0 0
0.37 0 0
0.38 0 0
0.39 0 0
0.4 0 0
0.41 0 0
0.42 0 0
0.43 0 0
0.44 0 0
0.45 0 0
0.46 0 0
0.47 0 0
0.48 0 0
0.49 0 0
0.5 0 0
0.51 0 0
0.52 0 0
0.53 0 0
0.54 0 0
0.55 0 0
0.56 0 0
0.57 0 0
0.58 0 0
0.59 0 0
0.6 0 0
0.61 0 0
0.62 0 0
0.63 0 0
0.64 0 0
0.65 0 0
0.66 0 0
0.67 0 0
0.68 0 0
0.69 0 0
0.7 0 0
0.71 0 0
0.72 0 0
0.73 0 0
0.74 0 0
0.75 0 0
0.76 0 0
0.77 0 0
0.78 0 0
0.79 0 0
0.8 0 0
0.81 0 0
0.82 0 0
0.83 0 0
0.84 0 0
0.85 0 0
0.86 0 0
0.87 0 0
0.88 0 0
0.89 0 0
0.9 0 0
0.91 0 0
0.92 0 0
0.93 0 0
0.94 0 0
0.95 0 0
0.96 0 0
0.97 0 0
0.98 0 0
0.99 0 0
1 0 0
0 0.01 0
0.01 0.01 0
0.02 0.01 0
0.03 0.01 0
0.04 0.01 0
0.05 0.01 0
0.06 0.01 0
0.07 0.01 0
0.08 0.01 0
0.09 0.01 0
0.1 0.01 0
0.11 0.01 0
0.12 0.01 0
0.13 0.01 0
0.14 0.01 0
0.15 0.01 0
0.16 0.01 0
0.17 0.01 0
0.18 0.01 0
0.19 0.01 0
0.2 0.01 0
0.21 0.01 0
0.22 0.01 0
0.23 0.01 0
0.24 0.01 0
0.25 0.01 0
0.26 0.01 0
0.27 0.01 0
0.28 0.01 0
0.29 0.01 0
0.3 0.01 0
0.31 0.01 0
0.32 0.01 0
0.33 0.01 0
0.34 0.01 0
0.35 0.01 0
0.36 0.01 0
0.37 0.01 0
0.38 0.01 0
0.39 0.01 0
0.4 0.01 0
0.41 0.01 0
0.42 0.01 0
0.43 0.01 0
0.44 0.01 0
0.45 0.01 0
0.46 0.01 0
0.47 0.01 0
0.48 0.01 0
0.49 0.01 0
0.5 0.01 0
0.51 0.01 0
0.52 0.01 0
0.53 0.01 0
0.54 0.01 0
0.55 0.01 0
0.56 0.01 0
0.57 0.01 0
0.58 0.01 0
0.59 0.01 0
0.6 0.01 0
0.61 0.01 0
0.62 0.01 0
0.63 0.01 0
0.64 0.01 0
0.65 0.01 0
0.66 0.01 0
0.67 0.01 0
0.68 0.01 0
0.69 0.01 0
0.7 0.01 0
0.71 0.01 0
0.72 0.01 0
0.73 0.01 0
0.74 0.01 0
0.75 0.01 0
0.76 0.01 0
0.77 0.01 0
0.78 0.01 0
0.79 0.01 0
0.8 0.01 0
0.81 0.01 0
0.82 0.01 0
0.83 0.01 0
0.84 0.01 0
0.85 0.01 0
0.86 0.01 0
0.87 0.01 0
0.88 0.01 0
0.89 0.01 0
0.9 0.01 0
0.91 0.01 0
0.92 0.01 0
0.93 0.01 0
0.94 0.01 0
0.95 0.01 0
0.96 0.01 0
0.97 0.01 0
0.98 0.01 0
0.99 0.01 0
1 0.01 0
0 0.02 0
0.01 0.02 0
0.02 0.02 0
0.03 0.02 0
0.04 0.02 0
0.05 0.02 0
0.06 0.02 0
0.07 0.02 0
0.08 0.02 0
0.09 0.02 0
0.1 0.02 0
0.11 0.02 0
0.12 0.02 0
0.13 0.02 0
0.14 0.02 0
0.15 0.02 0
0.16 0.02 0
0.17 0.02 0
0.18 0.02 0
0.19 0.02 0
0.2 0.02 0
0.21 0.02 0
0.22 0.02 0
0.23 0.02 0
0.24 0.02 0
0.25 0.02 0
0.26 0.02 0
0.27 0.02 0
0.28 0.02 0
0.29 0.02 0
0.3 0.02 0
0.31 0.02 0
0.32 0.02 0
0.33 0.02 0
0.34 0.02 0
0.35 0.02 0
0.36 0.02 0
0.37 0.02 0
0.38 0.02 0
0.39 0.02 0
0.4 0.02 0
0.41 0.02 0
0.42 0.02 0
0.43 0.02 0
0.44 0.02 0
0.45 0.02 0
0.46 0.02 0
0.47 0.02 0
0.48 0.02 0
0.49 0.02 0
0.5 0.02 0
0.51 0.02 0
0.52 0.02 0
0.53 0.02 0
0.54 0.02 0
0.55 0.02 0
0.56 0.02 0
0.57 0.02 0
0.58 0.02 0
0.59 0.02 0
0.6 0.02 0
0.61 0.02 0
0.62 0.02 0
0.63 0.02 0
0.64 0.02 0
0.65 0.02 0
0.66 0.02 0
0.67 0.02 0
0.68 0.02 0
0.69 0.02 0
0.7 0.02 0
0.71 0.02 0
0.72 0.02 0
0.73 0.02 0
0.74 0.02 0
0.75 0.02 0
0.76 0.02 0
0.77 0.02 0
0.78 0.02 0
0.79 0.02 0
0.8 0.02 0
0.81 0.02 0
0.82 0.02 0
0.83 0.02 0
0.84 0.02 0
0.85 0.02 0
0.86 0.02 0
0.87 0.02 0
0.88 0.02 0
0.89 0.02 0
0.9 0.02 0
0.91 0.02 0
0.92 0.02 0
0.93 0.02 0
0.94 0.02 0
0.95 0.02 0
0.96 0.02 0
0.97 0.02 0
0.98 0.02 0
0.99 0.02 0
1 0.02 0
0 0.03 0
0.01 0.03 0
0.02 0.03 0
0.03 0.03 0
0.04 0.03 0
0.05 0.03 0
0.06 0.03 0
0.07 0.03 0
0.08 0.03 0
0.09 0.03 0
0.1 0.03 0
0.11 0.03 0
0.12 0.03 0
0.13 0.03 0
0.14 0.03 0
0.15 0.03 0
0.16 0.03 0
0.17 0.03 0
0.18 0.03 0
0.19 0.03 0
0.2 0.03 0
0.21 0.03 0
0.22 0.03 0
0.23 0.03 0
0.24 0.03 0
0.25 0.03 0
0.26 0.03 0
0.27 0.03 0
0.28 0.03 0
0.29 0.03 0
0.3 0.03 0
0.31 0.03 0
0.32 0.03 0
0.33 0.03 0
0.34 0.03 0
0.35 0.03 0
0.36 0.03 0
0.37 0.03 0
0.38 0.03 0
0.39 0.03 0
0.4 0.03 0
0.41 0.03 0
0.42 0.03 0
0.43 0.03 0
0.44 0.03 0
0.45 0.03 0
0.46 0.03 0
0.47 0.03 0
0.48 0.03 0
0.49 0.03 0
0.5 0.03 0
0.51 0.03 0
0.52 0.03 0
0.53 0.03 0
0.54 0.03 0
0.55 0.03 0
0.56 0.03 0
0.57 0.03 0
0.58 0.03 0
0.59 0.03 0
0.6 0.03 0
0.61 0.03 0
0.62 0.03 0
0.63 0.03 0
0.64 0.03 0
0.65 0.03 0
0.66 0.03 0
0.67 0.03 0
0.68 0.03 0
0.69 0.03 0
0.7 0.03 0
0.71 0.03 0
0.72 0.03 0
0.73 0.03 0
0.74 0.03 0
0.75 0.03 0
0.76 0.03 0
0.77 0.03 0
0.78 0.03 0
0.79 0.03 0
0.8 0.03 0
0.81 0.03 0
0.82 0.03 0
0.83 0.03 0
0.84 0.03 0
0.85 0.03 0
0.86 0.03 0
0.87 0.03 0
0.88 0.03 0
0.89 0.03 0
0.9 0.03 0
0.91 0.03 0
0.92 0.03 0
0.93 0.03 0
0.94 0.03 0
0.95 0.03 0
0.96 0.03 0
0.97 0.03 0
0.98 0.03 0
0.99 0.03 0
1 0.03 0
0 0.04 0
0.01 0.04 0
0.02 0.04 0
0.03 0.04 0
0.04 0.04 0
0.05 0.04 0
0.06 0.04 0
0.07 0.04 0
0.08 0.04 0
0.09 0.04 0
0.1 0.04 0
0.11 0.04 0
0.12 0.04 0
0.13 0.04 0
0.14 0.04 0
0.15 0.04 0
0.16 0.04 0
0.17 0.04 0
0.18 0.04 0
0.19 0.04 0
0.2 0.04 0
0.21 0.04 0
0.22 0.04 0
0.23 0.04 0
0.24 0.04 0
0.25 0.04 0
0.26 0.04 0
0.27 0.04 0
0.28 0.04 0
0.29 0.04 0
0.3 0.04 0
0.31 0.04 0
0.32 0.04 0
0.33 0.04 0
0.34 0.04 0
0.35 0.04 0
0.36 0.04 0
0.37 0.04 0
0.38 0.04 0
0.39 0.04 0
0.4 0.04 0
0.41 0.04 0
0.42 0.04 0
0.43 0.04 0
0.44 0.04 0
0.45 0.04 0
0.46 0.04 0
0.47 0.04 0
0.48 0.04 0
0.49 0.04 0
0.5 0.04 0
0.51 0.04 0
0.52 0.04 0
0.53 0.04 0
0.54 0.04 0
0.55 0.04 0
0.56 0.04 0
0.57 0.04 0
0.58 0.04 0
0.59 0.04 0
0.6 0.04 0
0.61 0.04 0
0.62 0.04 0
0.63 0.04 0
0.64 0.04 0
0.65 0.04 0
0.66 0.04 0
0.67 0.04 0
0.68 0.04 0
0.69 0.04 0
0.7 0.04 0
0.71 0.04 0
0.72 0.04 0
0.73 0.04 0
0.74 0.04 0
0.75 0.04 0
0.76 0.04 0
0.77 0.04 0
0.78 0.04 0
0.79 0.04 0
0.8 0.04 0
0.81 0.04 0
0.82 0.04 0
0.83 0.04 0
0.84 0.04 0
0.85 0.04 0
0.86 0.04 0
0.87 0.04 0
0.88 0.04 0
0.89 0.04 0
0.9 0.04 0
0.91 0.04 0
0.92 0.04 0
0.93 0.04 0
0.94 0.04 0
0.95 0.04 0
0.96 0.04 0
0.97 0.04 0
0.98 0.04 0
0.99 0.04 0
1 0.04 0
0 0.05 0
0.01 0.05 0
0.02 0.05 0
0.03 0.05 0
0.04 0.05 0
0.05 0.05 0
0.06 0.05 0
0.07 0.05 0
0.08 0.05 0
0.09 0.05 0
0.1 0.05 0
0.11 0.05 0
0.12 0.05 0
0.13 0.05 0
0.14 0.05 0
0.15 0.05 0
0.16 0.05 0
0.17 0.05 0
0.18 0.05 0
0.19 0.05 0
0.2 0.05 0
0.21 0.05 0
0.22 0.05 0
0.23 0.05 0
0.24 0.05 0
0.25 0.05 0
0.26 0.05 0
0.27 0.05 0
0.28 0.05 0
0.29 0.05 0
0.3 0.05 0
0.31 0.05 0
0.32 0.05 0
0.33 0.05 0
0.34 0.05 0
0.35 0.05 0
0.36 0.05 0
0.37 0.05 0
0.38 0.05 0
0.39 0.05 0
0.4 0.05 0
0.41 0.05 0
0.42 0.05 0
0.43 0.05 0
0.44 0.05 0
0.45 0.05 0
0.46 0.05 0
0.47 0.05 0
0.48 0.05 0
0.49 0.05 0
0.5 0.05 0
0.51 0.05 0
0.52 0.05 0
0.53 0.05 0
0.54 0.05 0
0.55 0.05 0
0.56 0.05 0
0.57 0.05 0
0.58 0.05 0
0.59 0.05 0
0.6 0.05 0
0.61 0.05 0
0.62 0.05 0
0.63 0.05 0
0.64 0.05 0
0.65 0.05 0
0.66 0.05 0
0.67 0.05 0
0.68 0.05 0
0.69 0.05 0
0.7 0.05 0
0.71 0.05 0
0.72 0.05 0
0.73 0.05 0
0.74 0.05 0
0.75 0.05 0
0.76 0.05 0
0.77 0.05 0
0.78 0.05 0
0.79 0.05 0
0.8 0.05 0
0.81 0.05 0
0.82 0.05 0
0.83 0.05 0
0.84 0.05 0
0.85 0.05 0
0.86 0.05 0
0.87 0.05 0
0.88 0.05 0
0.89 0.05 0
0.9 0.05 0
0.91 0.05 0
0.92 0.05 0
0.93 0.05 0
0.94 0.05 0
0.95 0.05 0
0.96 0.05 0
0.97 0.05 0
0.98 0.05 0
0.99 0.05 0
1 0.05 0
0 0.06 0
0.01 0.06 0
0.02 0.06 0
0.03 0.06 0
0.04 0.06 0
0.05 0.06 0
0.06 0.06 0
0.07 0.06 0
0.08 0.06 0
0.09 0.06 0
0.1 0.06 0
0.11 0.06 0
0.12 0.06 0
0.13 0.06 0
0.14 0.06 0
0.15 0.06 0
0.16 0.06 0
0.17 0.06 0
0.18 0.06 0
0.19 0.06 0
0.2 0.06 0
0.21 0.06 0
0.22 0.06 0
0.23 0.06 0
0.24 0.06 0
0.25 0.06 0
0.26 0.06 0
0.27 0.06 0
0.28 0.06 0
0.29 0.06 0
0.3 0.06 0
0.31 0.06 0
0.32 0.06 0
0.33 0.06 0
0.34 0.06 0
0.35 0.06 0
0.36 0.06 0
0.37 0.06 0
0.38 0.06 0
0.39 0.06 0
0.4 0.06 0
0.41 0.06 0
0.42 0.06 0
0.43 0.06 0
0.44 0.06 0
0.45 0.06 0
0.46 0.06 0
0.47 0.06 0
0.48 0.06 0
0.49 0.06 0
0.5 0.06 0
0.51 0.06 0
0.52 0.06 0
0.53 0.06 0
0.54 0.06 0
0.55 0.06 0
0.56 0.06 0
0.57 0.06 0
0.58 0.06 0
0.59 0.06 0
0.6 0.06 0
0.61 0.06 0
0.62 0.06 0
0.63 0.06 0
0.64 0.06 0
0.65 0.06 0
0.66 0.06 0
0.67 0.06 0
0.68 0.06 0
0.69 0.06 0
0.7 0.06 0
0.71 0.06 0
0.72 0.06 0
0.73 0.06 0
0.74 0.06 0
0.75 0.06 0
0.76 0.06 0
0.77 0.06 0
0.78 0.06 0
0.79 0.06 0
0.8 0.06 0
0.81 0.06 0
0.82 0.06 0
0.83 0.06 0
0.84 0.06 0
0.85 0.06 0
0.86 0.06 0
0.87 0.06 0
0.88 0.06 0
0.89 0.06 0
0.9 0.06 0
0.91 0.06 0
0.92 0.06 0
0.93 0.06 0
0.94 0.06 0
0.95 0.06 0
0.96 0.06 0
0.97 0.06 0
0.98 0.06 0
0.99 0.06 0
1 0.06 0
0 0.07 0
0.01 0.07 0
0.02 0.07 0
0.03 0.07 0
0.04 0.07 0
0.05 0.07 0
0.06 0.07 0
0.07 0.07 0
0.08 0.07 0
0.09 0.07 0
0.1 0.07 0
0.11 0.07 0
0.12 0.07 0
0.13 0.07 0
0.14 0.07 0
0.15 0.07 0
0.16 0.07 0
0.17 0.07 0
0.18 0.07 0
0.19 0.07 0
0.2 0.07 0
0.21 0.07 0
0.22 0.07 0
0.23 0.07 0
0.24 0.07 0
0.25 0.07 0
0.26 0.07 0
0.27 0.07 0
0.28 0.07 0
0.29 0.07 0
0.3 0.07 0
0.31 0.07 0
0.32 0.07 0
0.33 0.07 0
0.34 0.07 0
0.35 0.07 0
0.36 0.07 0
0.37 0.07 0
0.38 0.07 0
0.39 0.07 0
0.4 0.07 0
0.41 0.07 0
0.42 0.07 0
0.43 0.07 0
0.44 0.07 0
0.45 0.07 0
0.46 0.07 0
0.47 0.07 0
0.48 0.07 0
0.49 0.07 0
0.5 0.07 0
0.51 0.07 0
0.52 0.07 0
0.53 0.07 0
0.54 0.07 0
0.55 0.07 0
0.56 0.07 0
0.57 0.07 0
0.58 0.07 0
0.59 0.07 0
0.6 0.07 0
0.61 0.07 0
0.62 0.07 0
0.63 0.07 0
0.64 0.07 0
0.65 0.07 0
0.66 0.07 0
0.67 0.07 0
0.68 0.07 0
0.69 0.07 0
0.7 0.07 0
0.71 0.07 0
0.72 0.07 0
0.73 0.07 0
0.74 0.07 0
0.75 0.07 0
0.76 0.07 0
0.77 0.07 0
0.78 0.07 0
0.79 0.07 0
0.8 0.07 0
0.81 0.07 0
0.82 0.07 0
0.83 0.07 0
0.84 0.07 0
0.85 0.07 0
0.86 0.07 0
0.87 0.07 0
0.88 0.07 0
0.89 0.07 0
0.9 0.07 0
0.91 0.07 0
0.92 0.07 0
0.93 0.07 0
0.94 0.07 0
0.95 0.07 0
0.96 0.07 0
0.97 0.07 0
0.98 0.07 0
0.99 0.07 0
1 0.07 0
0 0.08 0
0.01 0.08 0
0.02 0.08 0
0.03 0.08 0
0.04 0.08 0
0.05 0.08 0
0.06 0.08 0
0.07 0.08 0
0.08 0.08 0
0.09 0.08 0
0.1 0.08 0
0.11 0.08 0
0.12 0.08 0
0.13 0.08 0
0.14 0.08 0
0.15 0.08 0
0.16 0.08 0
0.17 0.08 0
0.18 0.08 0
0.19 0.08 0
0.2 0.08 0
0.21 0.08 0
0.22 0.08 0
0.23 0.08 0
0.24 0.08 0
0.25 0.08 0
0.26 0.08 0
0.27 0.08 0
0.28 0.08 0
0.29 0.08 0
0.3 0.08 0
0.31 0.08 0
0.32 0.08 0
0.33 0.08 0
0.34 0.08 0
0.35 0.08 0
0.36 0.08 0
0.37 0.08 0
0.38 0.08 0
0.39 0.08 0
0.4 0.08 0
0.41 0.08 0
0.42 0.08 0
0.43 0.08 0
0.44 0.08 0
0.45 0.08 0
0.46 0.08 0
0.47 0.08 0
0.48 0.08 0
0.49 0.08 0
0.5 0.08 0
0.51 0.08 0
[...]
POINT_DATA 10201
SCALARS pressure float 1
LOOKUP_TABLE default
-0.261388
-0.26134
-0.261154
-0.260798
-0.260282
-0.259609
-0.258782
-0.257803
-0.256676
-0.255403
-0.253985
-0.252427
-0.25073
-0.248898
-0.246935
-0.244843
-0.242627
-0.24029
-0.237837
-0.235273
-0.232601
-0.229827
-0.226955
-0.223991
-0.22094
-0.217807
-0.214597
-0.211317
-0.20797
-0.204563
-0.201101
-0.197589
-0.194033
-0.190436
-0.186805
-0.183143
-0.179454
-0.175744
-0.172015
-0.168272
-0.164518
-0.160755
-0.156988
-0.153217
-0.149446
-0.145677
-0.141912
-0.138152
-0.1344
-0.130656
-0.126922
-0.123199
-0.11949
-0.115794
-0.112115
-0.108453
-0.104809
-0.101186
-0.0975848
-0.0940082
-0.090458
-0.0869366
-0.0834464
-0.0799901
-0.0765706
-0.073191
-0.0698543
-0.0665639
-0.0633234
-0.0601363
-0.0570064
-0.0539373
-0.0509331
-0.0479975
-0.0451344
-0.0423479
-0.0396418
-0.0370199
-0.0344861
-0.0320441
-0.0296975
-0.0274498
-0.0253043
-0.0232644
-0.0213332
-0.0195134
-0.017808
-0.0162194
-0.0147501
-0.0134024
-0.0121782
-0.0110797
-0.0101088
-0.0092674
-0.00855734
-0.00798012
-0.00753605
-0.00722298
-0.00703247
-0.00695327
-0.00694033
-0.261325
-0.26127
-0.261075
-0.260714
-0.260196
-0.25952
-0.258692
-0.257712
-0.256583
-0.255307
-0.253888
-0.252327
-0.250627
-0.248792
-0.246825
-0.24473
-0.24251
-0.240169
-0.237712
-0.235143
-0.232467
-0.229689
-0.226813
-0.223845
-0.220789
-0.217652
-0.214439
-0.211154
-0.207804
-0.204393
-0.200928
-0.197413
-0.193854
-0.190255
-0.186622
-0.182958
-0.179269
-0.175558
-0.171829
-0.168086
-0.164332
-0.160571
-0.156805
-0.153036
-0.149268
-0.145502
-0.14174
-0.137984
-0.134235
-0.130496
-0.126766
-0.123049
-0.119345
-0.115655
-0.111981
-0.108324
-0.104687
-0.101069
-0.0974746
-0.093904
-0.0903599
-0.0868444
-0.0833601
-0.0799097
-0.0764959
-0.0731218
-0.0697905
-0.0665054
-0.06327
-0.0600878
-0.0569625
-0.053898
-0.050898
-0.0479664
-0.0451073
-0.0423244
-0.0396217
-0.0370031
-0.0344724
-0.0320332
-0.0296892
-0.027444
-0.0253008
-0.023263
-0.0213337
-0.0195158
-0.017812
-0.0162249
-0.0147569
-0.0134103
-0.0121871
-0.0110894
-0.0101188
-0.00927716
-0.00856591
-0.00798608
-0.00753748
-0.00721804
-0.00702021
-0.00693783
-0.00692547
-0.261097
-0.261033
-0.260822
-0.260452
-0.259928
-0.259249
-0.258416
-0.257432
-0.256299
-0.255019
-0.253594
-0.252027
-0.250321
-0.248479
-0.246505
-0.244402
-0.242175
-0.239826
-0.237361
-0.234783
-0.232099
-0.229311
-0.226427
-0.223449
-0.220385
-0.21724
-0.214018
-0.210725
-0.207368
-0.20395
-0.200478
-0.196958
-0.193393
-0.18979
-0.186153
-0.182486
-0.178795
-0.175083
-0.171354
-0.167612
-0.16386
-0.160102
-0.15634
-0.152576
-0.148813
-0.145054
-0.141299
-0.137551
-0.133812
-0.130082
-0.126363
-0.122656
-0.118963
-0.115285
-0.111623
-0.107979
-0.104353
-0.100748
-0.0971661
-0.0936081
-0.0900763
-0.0865732
-0.083101
-0.0796624
-0.0762602
-0.0728973
-0.069577
-0.0663024
-0.0630771
-0.0599047
-0.0567887
-0.0537331
-0.0507416
-0.0478181
-0.0449665
-0.0421908
-0.0394949
-0.0368827
-0.0343578
-0.0319242
-0.0295854
-0.027345
-0.0252063
-0.0231726
-0.0212471
-0.0194326
-0.017732
-0.0161477
-0.0146823
-0.013338
-0.0121167
-0.0110204
-0.0100507
-0.00920893
-0.00849625
-0.00791314
-0.00745901
-0.00713238
-0.00692726
-0.00684659
-0.00683938
-0.260673
-0.260603
-0.260383
-0.260006
-0.259475
-0.25879
-0.257952
-0.256963
-0.255824
-0.254537
-0.253106
-0.251532
-0.249818
-0.247968
-0.245986
-0.243874
-0.241637
-0.239278
-0.236803
-0.234215
-0.23152
-0.228722
-0.225827
-0.22284
-0.219765
-0.21661
-0.213378
-0.210077
-0.20671
-0.203285
-0.199806
-0.196278
-0.192708
-0.1891
-0.185459
-0.18179
-0.178097
-0.174385
-0.170657
-0.166917
-0.163168
-0.159414
-0.155657
-0.1519
-0.148145
-0.144394
-0.140649
-0.136911
-0.133183
-0.129465
-0.125759
-0.122065
-0.118386
-0.114722
-0.111075
-0.107445
-0.103834
-0.100244
-0.0966769
-0.0931335
-0.0896163
-0.0861274
-0.0826691
-0.0792441
-0.0758551
-0.0725051
-0.069197
-0.0659344
-0.0627204
-0.0595588
-0.0564532
-0.0534074
-0.0504252
-0.0475105
-0.0446672
-0.0418993
-0.0392107
-0.0366053
-0.0340868
-0.0316592
-0.0293259
-0.0270906
-0.0249567
-0.0229274
-0.0210059
-0.0191951
-0.0174978
-0.0159166
-0.0144539
-0.0131119
-0.0118927
-0.010798
-0.00982942
-0.00898825
-0.00827547
-0.00769158
-0.00723626
-0.00690903
-0.00670513
-0.00663443
-0.00663604
-0.260062
-0.259988
-0.25976
-0.259377
-0.25884
-0.258149
-0.257304
-0.256308
-0.255162
-0.253867
-0.252427
-0.250844
-0.249121
-0.247261
-0.245268
-0.243145
-0.240896
-0.238525
-0.236038
-0.233437
-0.230729
-0.227919
-0.22501
-0.22201
-0.218924
-0.215756
-0.212513
-0.2092
-0.205823
-0.202388
-0.1989
-0.195365
-0.191788
-0.188175
-0.18453
-0.180857
-0.177163
-0.17345
-0.169724
-0.165986
-0.162242
-0.158493
-0.154743
-0.150995
-0.147249
-0.14351
-0.139777
-0.136053
-0.132339
-0.128636
-0.124945
-0.121269
-0.117606
-0.11396
-0.11033
-0.106719
-0.103126
-0.0995544
-0.0960049
-0.0924794
-0.0889797
-0.085508
-0.0820666
-0.0786579
-0.0752847
-0.0719499
-0.0686565
-0.0654079
-0.0622074
-0.0590585
-0.0559651
-0.0529307
-0.0499594
-0.0470549
-0.0442212
-0.0414624
-0.0387822
-0.0361847
-0.0336736
-0.0312528
-0.0289258
-0.0266964
-0.0245679
-0.0225436
-0.0206267
-0.0188201
-0.0171267
-0.0155489
-0.0140894
-0.0127502
-0.0115333
-0.0104406
-0.00947362
-0.0086336
-0.00792153
-0.00733806
-0.00688316
-0.0065573
-0.00635648
-0.00629532
-0.00630449
-0.259267
-0.25919
-0.258956
-0.258567
-0.258023
-0.257325
-0.256473
-0.255469
-0.254314
-0.25301
-0.25156
-0.249966
-0.248231
-0.246359
-0.244353
-0.242217
-0.239954
-0.23757
-0.235068
-0.232453
-0.22973
-0.226904
-0.223981
-0.220966
-0.217865
-0.214683
-0.211426
-0.208101
-0.204712
-0.201266
-0.197768
-0.194224
-0.19064
-0.18702
-0.18337
-0.179695
-0.175999
-0.172287
-0.168562
-0.164829
-0.161089
-0.157348
-0.153607
-0.149869
-0.146135
-0.142409
-0.138691
-0.134982
-0.131285
-0.127601
-0.123929
-0.120272
-0.11663
-0.113004
-0.109395
-0.105805
-0.102234
-0.0986829
-0.0951544
-0.0916495
-0.0881701
-0.0847183
-0.0812961
-0.0779062
-0.074551
-0.0712336
-0.0679569
-0.0647242
-0.0615389
-0.0584045
-0.0553247
-0.0523032
-0.049344
-0.046451
-0.043628
-0.0408792
-0.0382084
-0.0356196
-0.0331166
-0.0307033
-0.0283834
-0.0261604
-0.0240379
-0.0220191
-0.0201072
-0.0183053
-0.016616
-0.0150421
-0.013586
-0.0122499
-0.0110358
-0.00994545
-0.00898047
-0.00814214
-0.00743153
-0.00684943
-0.00639614
-0.00607275
-0.00587564
-0.00582216
-0.00583686
-0.258291
-0.258212
-0.257973
-0.257578
-0.257028
-0.256322
-0.255461
-0.254448
-0.253283
-0.251968
-0.250506
-0.2489
-0.247152
-0.245266
-0.243246
-0.241094
-0.238816
-0.236415
-0.233896
-0.231265
-0.228525
-0.225682
-0.222742
-0.21971
-0.216592
-0.213394
-0.210122
-0.206782
-0.20338
-0.199921
-0.196412
-0.192859
-0.189266
-0.18564
-0.181985
-0.178307
-0.17461
-0.170898
-0.167176
-0.163447
-0.159715
-0.155982
-0.152251
-0.148525
-0.144806
-0.141095
-0.137394
-0.133704
-0.130027
-0.126363
-0.122714
-0.119079
-0.11546
-0.111858
-0.108274
-0.104707
-0.10116
-0.0976336
-0.0941289
-0.0906475
-0.0871911
-0.0837616
-0.0803613
-0.0769924
-0.0736575
-0.0703596
-0.0671015
-0.0638865
-0.0607181
-0.0575997
-0.054535
-0.0515278
-0.048582
-0.0457015
-0.0428903
-0.0401525
-0.0374919
-0.0349126
-0.0324185
-0.0300134
-0.0277011
-0.0254851
-0.023369
-0.0213562
-0.0194498
-0.0176528
-0.0159682
-0.0143985
-0.0129461
-0.0116134
-0.0104023
-0.00931466
-0.00835206
-0.00751587
-0.00680721
-0.00622704
-0.00577586
-0.00545516
-0.00526144
-0.0052134
-0.00523171
-0.25714
-0.257058
-0.256815
-0.256414
-0.255856
-0.255142
-0.254272
-0.253249
-0.252072
-0.250745
-0.249271
-0.24765
-0.245888
-0.243986
-0.241949
-0.23978
-0.237484
-0.235065
-0.232528
-0.229877
-0.227118
-0.224256
-0.221297
-0.218247
-0.215111
-0.211895
-0.208606
-0.20525
-0.201833
-0.19836
-0.194839
-0.191275
-0.187673
-0.18404
-0.18038
-0.176698
-0.173
-0.16929
-0.165571
-0.161848
-0.158123
-0.154401
-0.150682
-0.14697
-0.143267
-0.139574
-0.135893
-0.132224
-0.12857
-0.12493
-0.121305
-0.117696
-0.114103
-0.110528
-0.10697
-0.103431
-0.0999112
-0.0964115
-0.0929333
-0.089478
-0.0860471
-0.0826425
-0.0792662
-0.0759205
-0.072608
-0.0693314
-0.0660938
-0.0628982
-0.0597482
-0.0566472
-0.0535989
-0.0506072
-0.0476759
-0.044809
-0.0420105
-0.0392844
-0.0366349
-0.0340658
-0.0315811
-0.0291848
-0.0268806
-0.0246721
-0.0225629
-0.0205564
-0.0186558
-0.0168642
-0.0151844
-0.0136191
-0.0121708
-0.0108417
-0.0096339
-0.00854924
-0.00758934
-0.00675561
-0.00604924
-0.00547133
-0.00502248
-0.00470442
-0.00451359
-0.00446928
-0.00448986
-0.255817
-0.255734
-0.255486
-0.255078
-0.254513
-0.25379
-0.25291
-0.251875
-0.250686
-0.249346
-0.247857
-0.246221
-0.244442
-0.242523
-0.240468
-0.23828
-0.235965
-0.233525
-0.230968
-0.228296
-0.225516
-0.222633
-0.219653
-0.216582
-0.213426
-0.210191
-0.206883
-0.203509
-0.200075
-0.196588
-0.193054
-0.189478
-0.185867
-0.182226
-0.17856
-0.174876
-0.171177
-0.167469
-0.163754
-0.160038
-0.156322
-0.152611
-0.148906
-0.145211
-0.141526
-0.137853
-0.134194
-0.130549
-0.12692
-0.123306
-0.119709
-0.116129
-0.112565
-0.10902
-0.105492
-0.101983
-0.0984924
-0.0950223
-0.0915733
-0.0881465
-0.0847435
-0.081366
-0.0780159
-0.0746954
-0.0714071
-0.0681536
-0.064938
-0.0617634
-0.0586331
-0.0555508
-0.0525201
-0.0495448
-0.046629
-0.0437765
-0.0409914
-0.0382779
-0.0356399
-0.0330816
-0.0306069
-0.0282198
-0.025924
-0.0237234
-0.0216214
-0.0196215
-0.017727
-0.0159409
-0.0142662
-0.0127056
-0.0112615
-0.0099363
-0.00873203
-0.00765057
-0.00669358
-0.00586253
-0.00515867
-0.00458317
-0.00413673
-0.00382113
-0.00363276
-0.00359109
-0.00361313
-0.25433
-0.254244
-0.25399
-0.253576
-0.253003
-0.25227
-0.251379
-0.250332
-0.24913
-0.247775
-0.246269
-0.244617
-0.24282
-0.240882
-0.238807
-0.236599
-0.234262
-0.231801
-0.22922
-0.226526
-0.223723
-0.220818
-0.217815
-0.214721
-0.211543
-0.208287
-0.204959
-0.201567
-0.198115
-0.194612
-0.191063
-0.187475
-0.183854
-0.180205
-0.176534
-0.172847
-0.169148
-0.165442
-0.161733
-0.158024
-0.154319
-0.150621
-0.146932
-0.143255
-0.13959
-0.13594
-0.132306
-0.128687
-0.125086
-0.121501
-0.117934
-0.114385
-0.110854
-0.10734
-0.103845
-0.100368
-0.0969107
-0.0934727
-0.0900552
-0.0866593
-0.0832863
-0.0799379
-0.0766159
-0.0733224
-0.0700599
-0.0668311
-0.0636389
-0.0604865
-0.0573772
-0.0543146
-0.0513024
-0.0483445
-0.0454448
-0.0426074
-0.0398364
-0.0371358
-0.03451
-0.0319628
-0.0294984
-0.0271208
-0.0248338
-0.0226413
-0.0205467
-0.0185536
-0.0166653
-0.014885
-0.0132155
-0.0116597
-0.01022
-0.00889876
-0.00769813
-0.00662
-0.00566606
-0.00483783
-0.00413661
-0.00356361
-0.00311955
-0.00280627
-0.00262005
-0.00258043
-0.00260352
-0.252682
-0.252593
-0.252334
-0.251913
-0.251331
-0.250588
-0.249685
-0.248625
-0.247408
-0.246037
-0.244515
-0.242844
-0.241027
-0.239069
-0.236972
-0.234742
-0.232382
-0.229897
-0.227293
-0.224574
-0.221747
-0.218817
-0.21579
-0.212672
-0.209471
-0.206192
-0.202843
-0.19943
-0.19596
-0.19244
-0.188876
-0.185275
-0.181643
-0.177986
-0.17431
-0.17062
-0.166922
-0.163219
-0.159515
-0.155816
-0.152123
-0.148439
-0.144768
-0.141111
-0.137469
-0.133844
-0.130236
-0.126647
-0.123076
-0.119523
-0.115989
-0.112474
-0.108977
-0.105499
-0.102038
-0.0985968
-0.0951739
-0.0917702
-0.0883863
-0.0850233
-0.0816823
-0.0783648
-0.0750726
-0.0718076
-0.0685724
-0.0653695
-0.0622019
-0.0590726
-0.0559852
-0.0529431
-0.0499502
-0.0470102
-0.0441273
-0.0413054
-0.0385489
-0.0358617
-0.0332482
-0.0307124
-0.0282586
-0.0258906
-0.0236125
-0.0214281
-0.0193411
-0.0173549
-0.0154729
-0.0136983
-0.0120341
-0.0104831
-0.00904785
-0.00773068
-0.00653375
-0.00545902
-0.00450821
-0.00368287
-0.00298433
-0.00241384
-0.00197214
-0.00166107
-0.0014768
-0.00143896
-0.00146293
-0.250881
-0.250789
-0.250524
-0.250095
-0.249503
-0.248749
-0.247834
-0.246759
-0.245527
-0.244139
-0.242598
-0.240907
-0.23907
-0.23709
-0.23497
-0.232716
-0.230332
-0.227822
-0.225192
-0.222447
-0.219594
-0.216637
-0.213585
-0.210442
-0.207215
-0.203913
-0.200541
-0.197107
-0.193617
-0.190079
-0.1865
-0.182886
-0.179243
-0.175578
-0.171897
-0.168205
-0.164507
-0.160808
-0.157112
-0.153423
-0.149743
-0.146076
-0.142425
-0.138789
-0.135172
-0.131574
-0.127996
-0.124438
-0.1209
-0.117381
-0.113883
-0.110404
-0.106944
-0.103503
-0.100081
-0.0966763
-0.0932904
-0.0899231
-0.0865749
-0.0832465
-0.0799392
-0.0766541
-0.073393
-0.0701578
-0.0669509
-0.0637749
-0.0606328
-0.0575275
-0.0544626
-0.0514416
-0.0484683
-0.0455467
-0.0426808
-0.0398748
-0.0371328
-0.0344591
-0.0318581
-0.0293338
-0.0268904
-0.0245321
-0.0222629
-0.0200866
-0.018007
-0.0160276
-0.0141519
-0.0123831
-0.0107241
-0.00917787
-0.00774698
-0.00643382
-0.00524058
-0.00416923
-0.00322155
-0.00239909
-0.00170324
-0.00113524
-0.000695847
-0.00038691
-0.000204498
-0.000168327
-0.000193144
-0.248932
-0.248838
-0.248565
-0.248128
-0.247526
-0.24676
-0.245832
-0.244742
-0.243493
-0.242087
-0.240526
-0.238815
-0.236956
-0.234952
-0.232809
-0.230529
-0.228119
-0.225582
-0.222925
-0.220153
-0.217272
-0.214288
-0.211208
-0.208038
-0.204786
-0.201458
-0.198063
-0.194606
-0.191097
-0.18754
-0.183945
-0.180317
-0.176664
-0.172991
-0.169305
-0.165611
-0.161915
-0.158221
-0.154533
-0.150856
-0.147191
-0.143543
-0.139912
-0.136301
-0.132711
-0.129142
-0.125596
-0.122071
-0.118568
-0.115087
-0.111627
-0.108187
-0.104766
-0.101365
-0.0979818
-0.0946168
-0.0912698
-0.0879406
-0.0846297
-0.0813375
-0.0780651
-0.0748137
-0.0715848
-0.0683803
-0.0652026
-0.0620542
-0.058938
-0.0558572
-0.0528151
-0.0498155
-0.0468621
-0.0439589
-0.0411101
-0.0383198
-0.0355924
-0.0329321
-0.0303433
-0.0278303
-0.0253973
-0.0230485
-0.020788
-0.0186196
-0.0165472
-0.0145745
-0.0127048
-0.0109415
-0.00928758
-0.00774598
-0.00631934
-0.00501007
-0.00382042
-0.00275237
-0.00180773
-0.000988102
-0.000294872
0.000270688
0.000707827
0.00101469
0.0011953
0.0012298
0.00120412
-0.246844
-0.246745
-0.246466
-0.24602
-0.245407
-0.244628
-0.243685
-0.242579
-0.241313
-0.239888
-0.238307
-0.236574
-0.234691
-0.232663
-0.230494
-0.228188
-0.22575
-0.223185
-0.2205
-0.217699
-0.214789
-0.211776
-0.208668
-0.205471
-0.202192
-0.198838
-0.195418
-0.191939
-0.188408
-0.184833
-0.181221
-0.17758
-0.173916
-0.170236
-0.166545
-0.162851
-0.159157
-0.155469
-0.151791
-0.148127
-0.144479
-0.140851
-0.137243
-0.133658
-0.130097
-0.12656
-0.123048
-0.119559
-0.116094
-0.112652
-0.109232
-0.105833
-0.102454
-0.0990942
-0.0957527
-0.0924289
-0.0891223
-0.0858328
-0.0825605
-0.0793057
-0.0760693
-0.0728523
-0.0696563
-0.0664832
-0.063335
-0.0602145
-0.0571245
-0.0540682
-0.051049
-0.0480707
-0.045137
-0.042252
-0.03942
-0.0366452
-0.033932
-0.0312848
-0.0287079
-0.0262058
-0.0237828
-0.0214431
-0.0191908
-0.01703
-0.0149645
-0.012998
-0.0111341
-0.009376
-0.00772689
-0.00618967
-0.00476703
-0.00346145
-0.00227519
-0.00121027
-0.000268544
0.000548381
0.00123909
0.0018023
0.00223726
0.00254212
0.00272096
0.00275375
0.00272716
-0.244622
-0.244519
-0.244232
-0.243776
-0.243152
-0.24236
-0.241402
-0.240279
-0.238994
-0.237549
-0.235947
-0.23419
-0.232284
-0.23023
-0.228034
-0.2257
-0.223234
-0.22064
-0.217925
-0.215094
-0.212154
-0.209112
-0.205974
-0.202748
-0.199442
-0.196062
-0.192617
-0.189114
-0.185562
-0.181968
-0.17834
-0.174685
-0.171011
-0.167324
-0.16363
-0.159935
-0.156245
-0.152565
-0.148898
-0.145249
-0.141619
-0.138013
-0.134431
-0.130874
-0.127345
-0.123842
-0.120365
-0.116915
-0.11349
-0.110089
-0.106711
-0.103355
-0.10002
-0.0967034
-0.0934051
-0.0901239
-0.0868592
-0.0836104
-0.0803777
-0.077161
-0.0739613
-0.0707793
-0.0676166
-0.0644748
-0.0613563
-0.0582637
-0.0551997
-0.0521676
-0.049171
-0.0462134
-0.043299
-0.0404317
-0.037616
-0.0348561
-0.0321565
-0.0295217
-0.0269561
-0.0244643
-0.0220506
-0.0197194
-0.0174748
-0.015321
-0.0132619
-0.0113012
-0.00944253
-0.00768923
-0.00604449
-0.00451126
-0.00309229
-0.00179009
-0.000606945
0.000455073
0.00139411
0.00220851
0.00289685
0.00345784
0.00389072
0.00419363
0.00437073
0.00440177
0.00437423
-0.242274
-0.242167
-0.241871
-0.241406
-0.240769
-0.239963
-0.238989
-0.237849
-0.236545
-0.235079
-0.233454
-0.231674
-0.229741
-0.227661
-0.225438
-0.223075
-0.22058
-0.217956
-0.21521
-0.212348
-0.209377
-0.206304
-0.203136
-0.199881
-0.196546
-0.193139
-0.189669
-0.186143
-0.182569
-0.178957
-0.175313
-0.171645
-0.167961
-0.164267
-0.160571
-0.156878
-0.153193
-0.149521
-0.145867
-0.142235
-0.138626
-0.135043
-0.131489
-0.127963
-0.124467
-0.121
-0.117562
-0.114152
-0.110769
-0.107412
-0.104079
-0.100767
-0.0974769
-0.0942054
-0.0909516
-0.0877142
-0.0844922
-0.0812851
-0.0780924
-0.0749144
-0.0717515
-0.0686045
-0.0654749
-0.0623644
-0.0592752
-0.0562099
-0.0531713
-0.0501628
-0.0471879
-0.0442504
-0.0413544
-0.0385039
-0.0357035
-0.0329576
-0.0302707
-0.0276474
-0.0250923
-0.0226099
-0.0202047
-0.0178812
-0.0156436
-0.013496
-0.0114426
-0.00948697
-0.00763293
-0.00588384
-0.00424294
-0.00271323
-0.00129748
1.75053e-06
0.00118214
0.00224158
0.0031782
0.00399032
0.0046765
0.00523543
0.00566636
0.0059674
0.0061428
0.00617207
0.00614354
-0.239808
-0.239697
-0.239392
-0.238916
-0.238267
-0.237446
-0.236455
-0.235296
-0.233972
-0.232484
-0.230836
-0.229031
-0.227073
-0.224965
-0.222713
-0.220321
-0.217795
-0.21514
-0.212363
-0.20947
-0.206467
-0.203363
-0.200165
-0.19688
-0.193516
-0.190082
-0.186586
-0.183037
-0.179442
-0.175811
-0.172152
-0.168472
-0.164779
-0.16108
-0.157383
-0.153692
-0.150014
-0.146353
-0.142714
-0.1391
-0.135513
-0.131957
-0.128432
-0.124939
-0.121479
-0.118051
-0.114653
-0.111286
-0.107948
-0.104635
-0.101348
-0.0980833
-0.0948392
-0.0916139
-0.0884056
-0.0852128
-0.0820342
-0.078869
-0.0757167
-0.0725772
-0.0694509
-0.0663386
-0.0632415
-0.0601615
-0.0571007
-0.0540618
-0.0510476
-0.0480615
-0.0451072
-0.0421885
-0.0393096
-0.0364747
-0.0336884
-0.0309552
-0.0282798
-0.0256668
-0.023121
-0.0206469
-0.0182491
-0.0159323
-0.0137006
-0.0115584
-0.0095097
-0.00755842
-0.00570824
-0.00396266
-0.00232494
-0.00079813
0.000614948
0.0019117
0.00308978
0.00414705
0.00508161
0.00589175
0.00657602
0.0071331
0.00756223
0.00786152
0.00803527
0.00806275
0.0080332
-0.237233
-0.237116
-0.236801
-0.236314
-0.235652
-0.234815
-0.233808
-0.23263
-0.231284
-0.229774
-0.228102
-0.226271
-0.224286
-0.222151
-0.219869
-0.217447
-0.21489
-0.212204
-0.209395
-0.206469
-0.203435
-0.200299
-0.197069
-0.193754
-0.190362
-0.186901
-0.18338
-0.179808
-0.176193
-0.172544
-0.16887
-0.165178
-0.161478
-0.157776
-0.154078
-0.150392
-0.146722
-0.143074
-0.139452
-0.135859
-0.132297
-0.12877
-0.125277
-0.121819
-0.118397
-0.115009
-0.111655
-0.108332
-0.10504
-0.101775
-0.098535
-0.0953181
-0.0921217
-0.0889434
-0.0857814
-0.0826336
-0.0794986
-0.0763753
-0.073263
-0.0701615
-0.0670711
-0.0639925
-0.0609269
-0.0578761
-0.0548424
-0.0518284
-0.048837
-0.0458718
-0.0429365
-0.0400349
-0.0371715
-0.0343505
-0.0315767
-0.0288546
-0.0261891
-0.0235849
-0.0210469
-0.0185797
-0.0161881
-0.0138766
-0.0116497
-0.00951169
-0.00746673
-0.00551876
-0.00367153
-0.00192859
-0.000293266
0.00123136
0.00264243
0.00393731
0.00511362
0.00616919
0.0071021
0.00791062
0.0085933
0.00914878
0.00957631
0.00987397
0.0100462
0.0100719
0.0100413
-0.234555
-0.234433
-0.234108
-0.233609
-0.232932
-0.23208
-0.231054
-0.229857
-0.22849
-0.226957
-0.22526
-0.223403
-0.22139
-0.219226
-0.216915
-0.214462
-0.211874
-0.209155
-0.206314
-0.203356
-0.200289
-0.197122
-0.193861
-0.190517
-0.187096
-0.183608
-0.180062
-0.176468
-0.172833
-0.169168
-0.16548
-0.161779
-0.158072
-0.154368
-0.150673
-0.146993
-0.143334
-0.139701
-0.136098
-0.132528
-0.128994
-0.125498
-0.122039
-0.118619
-0.115238
-0.111893
-0.108584
-0.105308
-0.102063
-0.0988464
-0.0956557
-0.0924877
-0.0893398
-0.0862093
-0.0830937
-0.079991
-0.0768993
-0.0738174
-0.0707444
-0.0676799
-0.0646241
-0.0615778
-0.0585421
-0.0555188
-0.0525102
-0.0495191
-0.0465485
-0.043602
-0.0406835
-0.037797
-0.0349469
-0.0321378
-0.0293744
-0.0266615
-0.024004
-0.0214068
-0.0188748
-0.0164129
-0.0140258
-0.0117182
-0.00949468
-0.00735956
-0.00531709
-0.00337127
-0.00152592
0.000215362
0.00184921
0.00337249
0.00478231
0.00607601
0.00725117
0.0083056
0.00923735
0.0100447