# vtk DataFile Version 2.0
t_insac_ib
ASCII
DATASET STRUCTURED_GRID
DIMENSIONS 151 51 1
POINTS 7701 float
0 0 0
0.0703713 0 0
0.140743 0 0
0.211114 0 0
0.281485 0 0
0.351857 0 0
0.422228 0 0
0.492599 0 0
0.562971 0 0
0.633342 0 0
0.703713 0 0
0.774085 0 0
0.844456 0 0
0.914827 0 0
0.985199 0 0
1.05557 0 0
1.12594 0 0
1.19631 0 0
1.26668 0 0
1.33706 0 0
1.40743 0 0
1.4778 0 0
1.54817 0 0
1.61854 0 0
1.68891 0 0
1.75928 0 0
1.82965 0 0
1.90003 0 0
1.9704 0 0
2.04077 -0.00166634 0
2.11114 -0.0125128 0
2.18151 -0.0341173 0
2.25188 -0.0680912 0
2.32225 -0.117717 0
2.39263 -0.176764 0
2.463 -0.235812 0
2.53337 -0.294859 0
2.60374 -0.353906 0
2.67411 -0.412954 0
2.74448 -0.472001 0
2.81485 -0.531049 0
2.88522 -0.590096 0
2.9556 -0.649144 0
3.02597 -0.708191 0
3.09634 -0.767239 0
3.16671 -0.826286 0
3.23708 -0.885317 0
3.30745 -0.934009 0
3.37782 -0.967283 0
3.4482 -0.988302 0
3.51857 -0.998618 0
3.58894 -1 0
3.65931 -1 0
3.72968 -1 0
3.80005 -1 0
3.87042 -1 0
3.94079 -1 0
4.01117 -1 0
4.08154 -1 0
4.15191 -1 0
4.22228 -1 0
4.29265 -1 0
4.36302 -1 0
4.43339 -1 0
4.50377 -1 0
4.57414 -1 0
4.64451 -1 0
4.71488 -1 0
4.78525 -1 0
4.85562 -1 0
4.92599 -1 0
4.99636 -1 0
5.06674 -1 0
5.13711 -1 0
5.20748 -1 0
5.27785 -1 0
5.34822 -1 0
5.41859 -1 0
5.48896 -1 0
5.55934 -1 0
5.62971 -1 0
5.70008 -1 0
5.77045 -1 0
5.84082 -1 0
5.91119 -1 0
5.98156 -1 0
6.05193 -1 0
6.12231 -0.990625 0
6.19268 -0.98125 0
6.26305 -0.971875 0
6.33342 -0.9625 0
6.40379 -0.953125 0
6.47416 -0.94375 0
6.54453 -0.934375 0
6.61491 -0.925 0
6.68528 -0.915625 0
6.75565 -0.90625 0
6.82602 -0.896875 0
6.89639 -0.8875 0
6.96676 -0.878125 0
7.03713 -0.86875 0
7.1075 -0.859375 0
7.17788 -0.85 0
7.24825 -0.840625 0
7.31862 -0.83125 0
7.38899 -0.821875 0
7.45936 -0.8125 0
7.52973 -0.803125 0
7.6001 -0.79375 0
7.67048 -0.784375 0
7.74085 -0.775 0
7.81122 -0.765625 0
7.88159 -0.75625 0
7.95196 -0.746875 0
8.02233 -0.7375 0
8.0927 -0.728125 0
8.16307 -0.71875 0
8.23345 -0.709375 0
8.30382 -0.7 0
8.37419 -0.690625 0
8.44456 -0.68125 0
8.51493 -0.671875 0
8.5853 -0.6625 0
8.65567 -0.653125 0
8.72605 -0.64375 0
8.79642 -0.634375 0
8.86679 -0.625 0
8.93716 -0.615625 0
9.00753 -0.60625 0
9.0779 -0.596875 0
9.14827 -0.5875 0
9.21864 -0.578125 0
9.28902 -0.568749 0
9.35939 -0.559374 0
9.42976 -0.549999 0
9.50013 -0.540624 0
9.5705 -0.531249 0
9.64087 -0.521874 0
9.71124 -0.512499 0
9.78162 -0.503124 0
9.85199 -0.493749 0
9.92236 -0.484374 0
9.99273 -0.474999 0
10.0631 -0.465624 0
10.1335 -0.456249 0
10.2038 -0.446874 0
10.2742 -0.437499 0
10.3446 -0.428124 0
10.415 -0.418749 0
10.4853 -0.409374 0
10.5557 -0.399999 0
0 0.02 0
0.0703713 0.02 0
0.140743 0.02 0
0.211114 0.02 0
0.281485 0.02 0
0.351857 0.02 0
0.422228 0.02 0
0.492599 0.02 0
0.562971 0.02 0
0.633342 0.02 0
0.703713 0.02 0
0.774085 0.02 0
0.844456 0.02 0
0.914827 0.02 0
0.985199 0.02 0
1.05557 0.02 0
1.12594 0.02 0
1.19631 0.02 0
1.26668 0.02 0
1.33706 0.02 0
1.40743 0.02 0
1.4778 0.02 0
1.54817 0.02 0
1.61854 0.02 0
1.68891 0.02 0
1.75928 0.02 0
1.82965 0.02 0
1.90003 0.02 0
1.9704 0.02 0
2.04077 0.018367 0
2.11114 0.00773744 0
2.18151 -0.013435 0
2.25188 -0.0467294 0
2.32225 -0.0953622 0
2.39263 -0.153229 0
2.463 -0.211095 0
2.53337 -0.268962 0
2.60374 -0.326828 0
2.67411 -0.384695 0
2.74448 -0.442561 0
2.81485 -0.500428 0
2.88522 -0.558294 0
2.9556 -0.616161 0
3.02597 -0.674028 0
3.09634 -0.731894 0
3.16671 -0.789761 0
3.23708 -0.847611 0
3.30745 -0.895328 0
3.37782 -0.927937 0
3.4482 -0.948536 0
3.51857 -0.958645 0
3.58894 -0.96 0
3.65931 -0.96 0
3.72968 -0.96 0
3.80005 -0.96 0
3.87042 -0.96 0
3.94079 -0.96 0
4.01117 -0.96 0
4.08154 -0.96 0
4.15191 -0.96 0
4.22228 -0.96 0
4.29265 -0.96 0
4.36302 -0.96 0
4.43339 -0.96 0
4.50377 -0.96 0
4.57414 -0.96 0
4.64451 -0.96 0
4.71488 -0.96 0
4.78525 -0.96 0
4.85562 -0.96 0
4.92599 -0.96 0
4.99636 -0.96 0
5.06674 -0.96 0
5.13711 -0.96 0
5.20748 -0.96 0
5.27785 -0.96 0
5.34822 -0.96 0
5.41859 -0.96 0
5.48896 -0.96 0
5.55934 -0.96 0
5.62971 -0.96 0
5.70008 -0.96 0
5.77045 -0.96 0
5.84082 -0.96 0
5.91119 -0.96 0
5.98156 -0.96 0
6.05193 -0.96 0
6.12231 -0.950812 0
6.19268 -0.941625 0
6.26305 -0.932437 0
6.33342 -0.92325 0
6.40379 -0.914062 0
6.47416 -0.904875 0
6.54453 -0.895687 0
6.61491 -0.8865 0
6.68528 -0.877312 0
6.75565 -0.868125 0
6.82602 -0.858937 0
6.89639 -0.84975 0
6.96676 -0.840562 0
7.03713 -0.831375 0
7.1075 -0.822187 0
7.17788 -0.813 0
7.24825 -0.803812 0
7.31862 -0.794625 0
7.38899 -0.785437 0
7.45936 -0.77625 0
7.52973 -0.767062 0
7.6001 -0.757875 0
7.67048 -0.748687 0
7.74085 -0.7395 0
7.81122 -0.730312 0
7.88159 -0.721125 0
7.95196 -0.711937 0
8.02233 -0.70275 0
8.0927 -0.693562 0
8.16307 -0.684375 0
8.23345 -0.675187 0
8.30382 -0.666 0
8.37419 -0.656812 0
8.44456 -0.647625 0
8.51493 -0.638437 0
8.5853 -0.62925 0
8.65567 -0.620062 0
8.72605 -0.610875 0
8.79642 -0.601687 0
8.86679 -0.5925 0
8.93716 -0.583312 0
9.00753 -0.574125 0
9.0779 -0.564937 0
9.14827 -0.55575 0
9.21864 -0.546562 0
9.28902 -0.537374 0
9.35939 -0.528187 0
9.42976 -0.518999 0
9.50013 -0.509812 0
9.5705 -0.500624 0
9.64087 -0.491437 0
9.71124 -0.482249 0
9.78162 -0.473062 0
9.85199 -0.463874 0
9.92236 -0.454687 0
9.99273 -0.445499 0
10.0631 -0.436312 0
10.1335 -0.427124 0
10.2038 -0.417937 0
10.2742 -0.408749 0
10.3446 -0.399562 0
10.415 -0.390374 0
10.4853 -0.381187 0
10.5557 -0.371999 0
0 0.04 0
0.0703713 0.04 0
0.140743 0.04 0
0.211114 0.04 0
0.281485 0.04 0
0.351857 0.04 0
0.422228 0.04 0
0.492599 0.04 0
0.562971 0.04 0
0.633342 0.04 0
0.703713 0.04 0
0.774085 0.04 0
0.844456 0.04 0
0.914827 0.04 0
0.985199 0.04 0
1.05557 0.04 0
1.12594 0.04 0
1.19631 0.04 0
1.26668 0.04 0
1.33706 0.04 0
1.40743 0.04 0
1.4778 0.04 0
1.54817 0.04 0
1.61854 0.04 0
1.68891 0.04 0
1.75928 0.04 0
1.82965 0.04 0
1.90003 0.04 0
1.9704 0.04 0
2.04077 0.0384003 0
2.11114 0.0279877 0
2.18151 0.00724739 0
2.25188 -0.0253676 0
2.32225 -0.0730079 0
2.39263 -0.129693 0
2.463 -0.186379 0
2.53337 -0.243065 0
2.60374 -0.29975 0
2.67411 -0.356436 0
2.74448 -0.413121 0
2.81485 -0.469807 0
2.88522 -0.526493 0
2.9556 -0.583178 0
3.02597 -0.639864 0
3.09634 -0.696549 0
3.16671 -0.753235 0
3.23708 -0.809904 0
3.30745 -0.856648 0
3.37782 -0.888592 0
3.4482 -0.90877 0
3.51857 -0.918673 0
3.58894 -0.92 0
3.65931 -0.92 0
3.72968 -0.92 0
3.80005 -0.92 0
3.87042 -0.92 0
3.94079 -0.92 0
4.01117 -0.92 0
4.08154 -0.92 0
4.15191 -0.92 0
4.22228 -0.92 0
4.29265 -0.92 0
4.36302 -0.92 0
4.43339 -0.92 0
4.50377 -0.92 0
4.57414 -0.92 0
4.64451 -0.92 0
4.71488 -0.92 0
4.78525 -0.92 0
4.85562 -0.92 0
4.92599 -0.92 0
4.99636 -0.92 0
5.06674 -0.92 0
5.13711 -0.92 0
5.20748 -0.92 0
5.27785 -0.92 0
5.34822 -0.92 0
5.41859 -0.92 0
5.48896 -0.92 0
5.55934 -0.92 0
5.62971 -0.92 0
5.70008 -0.92 0
5.77045 -0.92 0
5.84082 -0.92 0
5.91119 -0.92 0
5.98156 -0.92 0
6.05193 -0.92 0
6.12231 -0.911 0
6.19268 -0.902 0
6.26305 -0.893 0
6.33342 -0.884 0
6.40379 -0.875 0
6.47416 -0.866 0
6.54453 -0.857 0
6.61491 -0.848 0
6.68528 -0.839 0
6.75565 -0.83 0
6.82602 -0.821 0
6.89639 -0.812 0
6.96676 -0.803 0
7.03713 -0.794 0
7.1075 -0.785 0
7.17788 -0.776 0
7.24825 -0.767 0
7.31862 -0.758 0
7.38899 -0.749 0
7.45936 -0.74 0
7.52973 -0.731 0
7.6001 -0.722 0
7.67048 -0.713 0
7.74085 -0.704 0
7.81122 -0.695 0
7.88159 -0.686 0
7.95196 -0.677 0
8.02233 -0.668 0
8.0927 -0.659 0
8.16307 -0.65 0
8.23345 -0.641 0
8.30382 -0.632 0
8.37419 -0.623 0
8.44456 -0.614 0
8.51493 -0.605 0
8.5853 -0.596 0
8.65567 -0.587 0
8.72605 -0.578 0
8.79642 -0.569 0
8.86679 -0.56 0
8.93716 -0.551 0
9.00753 -0.542 0
9.0779 -0.533 0
9.14827 -0.524 0
9.21864 -0.515 0
9.28902 -0.506 0
9.35939 -0.496999 0
9.42976 -0.487999 0
9.50013 -0.478999 0
9.5705 -0.469999 0
9.64087 -0.460999 0
9.71124 -0.451999 0
9.78162 -0.442999 0
9.85199 -0.433999 0
9.92236 -0.424999 0
9.99273 -0.415999 0
10.0631 -0.406999 0
10.1335 -0.397999 0
10.2038 -0.388999 0
10.2742 -0.379999 0
10.3446 -0.370999 0
10.415 -0.361999 0
10.4853 -0.352999 0
10.5557 -0.343999 0
0 0.06 0
0.0703713 0.06 0
0.140743 0.06 0
0.211114 0.06 0
0.281485 0.06 0
0.351857 0.06 0
0.422228 0.06 0
0.492599 0.06 0
0.562971 0.06 0
0.633342 0.06 0
0.703713 0.06 0
0.774085 0.06 0
0.844456 0.06 0
0.914827 0.06 0
0.985199 0.06 0
1.05557 0.06 0
1.12594 0.06 0
1.19631 0.06 0
1.26668 0.06 0
1.33706 0.06 0
1.40743 0.06 0
1.4778 0.06 0
1.54817 0.06 0
1.61854 0.06 0
1.68891 0.06 0
1.75928 0.06 0
1.82965 0.06 0
1.90003 0.06 0
1.9704 0.06 0
2.04077 0.0584336 0
2.11114 0.048238 0
2.18151 0.0279297 0
2.25188 -0.00400573 0
2.32225 -0.0506536 0
2.39263 -0.106158 0
2.463 -0.161663 0
2.53337 -0.217167 0
2.60374 -0.272672 0
2.67411 -0.328177 0
2.74448 -0.383681 0
2.81485 -0.439186 0
2.88522 -0.494691 0
2.9556 -0.550195 0
3.02597 -0.6057 0
3.09634 -0.661204 0
3.16671 -0.716709 0
3.23708 -0.772198 0
3.30745 -0.817968 0
3.37782 -0.849246 0
3.4482 -0.869004 0
3.51857 -0.878701 0
3.58894 -0.88 0
3.65931 -0.88 0
3.72968 -0.88 0
3.80005 -0.88 0
3.87042 -0.88 0
3.94079 -0.88 0
4.01117 -0.88 0
4.08154 -0.88 0
4.15191 -0.88 0
4.22228 -0.88 0
4.29265 -0.88 0
4.36302 -0.88 0
4.43339 -0.88 0
4.50377 -0.88 0
4.57414 -0.88 0
4.64451 -0.88 0
4.71488 -0.88 0
4.78525 -0.88 0
4.85562 -0.88 0
4.92599 -0.88 0
4.99636 -0.88 0
5.06674 -0.88 0
5.13711 -0.88 0
5.20748 -0.88 0
5.27785 -0.88 0
5.34822 -0.88 0
5.41859 -0.88 0
5.48896 -0.88 0
5.55934 -0.88 0
5.62971 -0.88 0
5.70008 -0.88 0
5.77045 -0.88 0
5.84082 -0.88 0
5.91119 -0.88 0
5.98156 -0.88 0
6.05193 -0.88 0
6.12231 -0.871187 0
6.19268 -0.862375 0
6.26305 -0.853562 0
6.33342 -0.84475 0
6.40379 -0.835937 0
6.47416 -0.827125 0
6.54453 -0.818312 0
6.61491 -0.8095 0
6.68528 -0.800687 0
6.75565 -0.791875 0
6.82602 -0.783062 0
6.89639 -0.77425 0
6.96676 -0.765437 0
7.03713 -0.756625 0
7.1075 -0.747812 0
7.17788 -0.739 0
7.24825 -0.730187 0
7.31862 -0.721375 0
7.38899 -0.712562 0
7.45936 -0.70375 0
7.52973 -0.694937 0
7.6001 -0.686125 0
7.67048 -0.677312 0
7.74085 -0.6685 0
7.81122 -0.659687 0
7.88159 -0.650875 0
7.95196 -0.642062 0
8.02233 -0.63325 0
8.0927 -0.624437 0
8.16307 -0.615625 0
8.23345 -0.606812 0
8.30382 -0.598 0
8.37419 -0.589187 0
[...]
POINT_DATA 7701
SCALARS pressure float 1
LOOKUP_TABLE default
-4.82864
-4.82494
-4.81751
-4.81676
-4.82354
-4.8314
-4.83831
-4.84224
-4.84241
-4.83837
-4.82992
-4.8169
-4.79922
-4.77676
-4.74943
-4.71711
-4.6797
-4.63707
-4.58913
-4.53577
-4.4769
-4.41249
-4.34242
-4.26683
-4.18567
-4.09924
-4.00826
-3.91305
-3.81763
-3.72573
-3.61221
-3.4516
-3.24291
-2.99188
-2.72968
-2.49351
-2.28813
-2.1024
-1.93093
-1.77116
-1.62204
-1.48325
-1.35472
-1.23678
-1.12944
-1.03341
-0.949595
-0.879984
-0.824522
-0.777552
-0.73352
-0.690291
-0.646314
-0.601407
-0.557337
-0.515001
-0.475227
-0.438542
-0.405264
-0.375517
-0.349273
-0.326386
-0.306634
-0.289751
-0.275452
-0.263455
-0.253483
-0.245278
-0.238597
-0.233217
-0.228933
-0.225561
-0.222931
-0.220886
-0.219274
-0.217948
-0.216755
-0.215541
-0.214142
-0.212404
-0.210179
-0.20735
-0.203861
-0.199656
-0.194854
-0.189332
-0.183942
-0.177877
-0.170377
-0.162332
-0.153667
-0.144618
-0.135299
-0.125856
-0.116413
-0.107085
-0.0979716
-0.0891579
-0.0807119
-0.0726865
-0.0651202
-0.0580384
-0.0514547
-0.0453728
-0.0397878
-0.0346874
-0.0300541
-0.0258656
-0.0220966
-0.0187199
-0.0157069
-0.0130288
-0.0106573
-0.00856459
-0.00672445
-0.00511205
-0.00370426
-0.00247981
-0.00141925
-0.000504939
0.00027902
0.000946873
0.00151134
0.00198376
0.00237418
0.00269154
0.00294374
0.00313783
0.00328005
0.00337594
0.00343047
0.00344806
0.00343265
0.0033878
0.00331669
0.00322216
0.00310677
0.00297281
0.00282234
0.00265715
0.00247887
0.0022889
0.00208845
0.00187855
0.00166001
0.00143355
0.00119926
0.000957928
0.000706755
0.000449637
0.000200954
-4.83111
-4.82726
-4.81932
-4.81796
-4.82428
-4.83183
-4.83855
-4.84237
-4.84247
-4.8384
-4.82992
-4.81689
-4.7992
-4.77674
-4.74941
-4.71709
-4.67968
-4.63706
-4.58912
-4.53578
-4.47693
-4.41254
-4.34251
-4.26697
-4.18589
-4.09958
-4.00879
-3.91396
-3.81869
-3.72672
-3.6154
-3.46058
-3.25994
-3.01593
-2.75624
-2.51899
-2.31202
-2.12527
-1.95307
-1.79265
-1.64282
-1.50321
-1.37369
-1.25462
-1.14593
-1.04822
-0.962396
-0.890127
-0.831744
-0.78234
-0.736434
-0.691807
-0.646904
-0.601404
-0.556926
-0.514301
-0.47432
-0.437493
-0.404127
-0.374335
-0.34808
-0.325207
-0.305486
-0.288644
-0.274391
-0.262444
-0.252523
-0.244369
-0.237739
-0.232411
-0.22818
-0.224862
-0.222287
-0.220299
-0.218746
-0.217481
-0.21635
-0.215198
-0.213858
-0.212175
-0.209996
-0.207205
-0.203746
-0.199561
-0.194762
-0.189242
-0.183641
-0.177336
-0.169795
-0.161722
-0.153049
-0.144005
-0.134697
-0.125274
-0.115855
-0.106556
-0.0974755
-0.0886958
-0.0802846
-0.072294
-0.0647618
-0.0577128
-0.0511605
-0.0451081
-0.0395505
-0.0344757
-0.0298658
-0.0256987
-0.0219493
-0.0185902
-0.0155932
-0.0129294
-0.0105707
-0.00848948
-0.00665955
-0.00505621
-0.00365648
-0.00243917
-0.00138492
-0.000476185
0.000302845
0.000966348
0.00152698
0.00199602
0.00238347
0.00269821
0.00294813
0.0031402
0.00328066
0.00337502
0.00342822
0.00344464
0.00342824
0.00338253
0.00331067
0.00321551
0.00309959
0.00296518
0.00281431
0.00264881
0.00247026
0.00228006
0.00207941
0.00186935
0.00165067
0.00142406
0.00118963
0.000948133
0.000696902
0.000439785
0.000155823
-4.83539
-4.83118
-4.82225
-4.81984
-4.82545
-4.83254
-4.83896
-4.8426
-4.84259
-4.83844
-4.82992
-4.81686
-4.79915
-4.77669
-4.74935
-4.71704
-4.67963
-4.63702
-4.58909
-4.53577
-4.47694
-4.41258
-4.34259
-4.26711
-4.18611
-4.09991
-4.00923
-3.9146
-3.81854
-3.72454
-3.61487
-3.46843
-3.28097
-3.05024
-2.79725
-2.55962
-2.35036
-2.16195
-1.98855
-1.82705
-1.67608
-1.53516
-1.40408
-1.28321
-1.17239
-1.07209
-0.983287
-0.90722
-0.844397
-0.790998
-0.741817
-0.694526
-0.647721
-0.600979
-0.555629
-0.512394
-0.471996
-0.434903
-0.401396
-0.371561
-0.345339
-0.32255
-0.302944
-0.286233
-0.272118
-0.260307
-0.25052
-0.242498
-0.235996
-0.230794
-0.226689
-0.223497
-0.221053
-0.219199
-0.217786
-0.216665
-0.21568
-0.214673
-0.213469
-0.211906
-0.209824
-0.207103
-0.203684
-0.199515
-0.194694
-0.189147
-0.183254
-0.176626
-0.169005
-0.160858
-0.152142
-0.143073
-0.133758
-0.124343
-0.114945
-0.105678
-0.096638
-0.0879058
-0.0795463
-0.0716098
-0.0641323
-0.0571375
-0.0506376
-0.0446353
-0.0391251
-0.0340945
-0.0295255
-0.0253961
-0.0216811
-0.0183533
-0.0153846
-0.0127464
-0.0104105
-0.00834983
-0.00653822
-0.00495119
-0.00356597
-0.00236153
-0.0013187
-0.000420069
0.000350022
0.00100563
0.00155929
0.00202218
0.00240421
0.00271418
0.0029599
0.0031483
0.00328553
0.00337707
0.00342779
0.00344207
0.0034238
0.00337648
0.00330323
0.00320687
0.00308992
0.00295464
0.00280304
0.0026369
0.00245782
0.00226717
0.00206615
0.00185577
0.00163682
0.00140998
0.00117537
0.000933726
0.000682671
0.000425925
0.000148951
-4.83963
-4.83507
-4.82516
-4.82169
-4.82665
-4.83332
-4.83946
-4.84292
-4.84278
-4.83854
-4.82995
-4.81686
-4.79912
-4.77664
-4.7493
-4.71698
-4.67957
-4.63696
-4.58904
-4.53572
-4.4769
-4.41256
-4.34258
-4.26711
-4.1861
-4.09985
-4.00894
-3.91382
-3.8158
-3.71753
-3.6061
-3.46437
-3.28722
-3.06991
-2.82691
-2.59208
-2.38194
-2.19236
-2.01794
-1.85551
-1.70351
-1.56143
-1.42897
-1.30652
-1.19392
-1.09151
-1.00049
-0.921838
-0.855718
-0.798972
-0.746841
-0.696901
-0.647971
-0.59973
-0.553273
-0.509257
-0.468336
-0.430936
-0.397301
-0.367479
-0.341373
-0.318768
-0.299384
-0.28291
-0.269028
-0.257444
-0.247872
-0.240055
-0.23375
-0.228739
-0.224821
-0.221817
-0.219563
-0.217905
-0.216696
-0.215786
-0.215015
-0.214218
-0.21321
-0.211814
-0.209858
-0.207214
-0.203824
-0.19964
-0.194754
-0.189121
-0.183017
-0.176167
-0.168429
-0.160164
-0.151363
-0.142228
-0.132868
-0.123429
-0.114028
-0.104775
-0.0957626
-0.0870694
-0.0787571
-0.0708728
-0.0634502
-0.0565111
-0.0500662
-0.044117
-0.0386573
-0.0336742
-0.0291494
-0.0250607
-0.0213829
-0.0180891
-0.0151511
-0.0125407
-0.0102298
-0.00819152
-0.00639994
-0.00483079
-0.00346148
-0.00227119
-0.00124092
-0.000353423
0.000406812
0.0010537
0.00159966
0.00205576
0.0024318
0.00273649
0.00297758
0.0031619
0.00329556
0.00338398
0.00343198
0.00344389
0.00342355
0.00337444
0.00329965
0.00320196
0.00308387
0.00294762
0.00279519
0.00262836
0.00244869
0.00225756
0.00205615
0.00184546
0.00162627
0.00139927
0.00116462
0.000923046
0.000672591
0.000416775
0.000144568
-4.84436
-4.83964
-4.82887
-4.82418
-4.82828
-4.83441
-4.84018
-4.84338
-4.84305
-4.8387
-4.83003
-4.81688
-4.79911
-4.7766
-4.74924
-4.71691
-4.67949
-4.63688
-4.58897
-4.53565
-4.47683
-4.4125
-4.34252
-4.26703
-4.18597
-4.0996
-4.00833
-3.91249
-3.81248
-3.70984
-3.59569
-3.45702
-3.28866
-3.08462
-2.85363
-2.62412
-2.41448
-2.2242
-2.04893
-1.88559
-1.73257
-1.58927
-1.45534
-1.33118
-1.21666
-1.11197
-1.01852
-0.937142
-0.86761
-0.807296
-0.751934
-0.699064
-0.647678
-0.597597
-0.549747
-0.504736
-0.463154
-0.425384
-0.391619
-0.361857
-0.335951
-0.313633
-0.29458
-0.278448
-0.264899
-0.253634
-0.244361
-0.236828
-0.230793
-0.226044
-0.222382
-0.219634
-0.217639
-0.216248
-0.215317
-0.214697
-0.214221
-0.213716
-0.212977
-0.211811
-0.210022
-0.207476
-0.204113
-0.199892
-0.194908
-0.189141
-0.182793
-0.175688
-0.167783
-0.159359
-0.150437
-0.141206
-0.131781
-0.122304
-0.112892
-0.103652
-0.0946722
-0.0860268
-0.0777731
-0.0699543
-0.0626009
-0.0557318
-0.0493559
-0.0434734
-0.0380769
-0.033153
-0.0286831
-0.024645
-0.0210134
-0.0177616
-0.0148617
-0.0122855
-0.0100055
-0.00799483
-0.00622796
-0.00468085
-0.00333118
-0.00215834
-0.00114357
-0.000269815
0.000478253
0.00111438
0.00165084
0.00209855
0.00246721
0.00276541
0.00300079
0.00318012
0.0033094
0.00339399
0.00343867
0.00344768
0.00342483
0.00337355
0.0032969
0.00319761
0.00307816
0.00294075
0.00278734
0.0026197
0.00243935
0.00224767
0.00204582
0.00183479
0.00161537
0.00138824
0.00115363
0.00091227
0.000662633
0.00040801
0.00014044
-4.84888
-4.84425
-4.83294
-4.82699
-4.83013
-4.83567
-4.84101
-4.84392
-4.8434
-4.83889
-4.83013
-4.81691
-4.79909
-4.77656
-4.74918
-4.71683
-4.67941
-4.6368
-4.58888
-4.53556
-4.47674
-4.4124
-4.34241
-4.26688
-4.18573
-4.09919
-4.0075
-3.91084
-3.80907
-3.7028
-3.58585
-3.44869
-3.28669
-3.09388
-2.87496
-2.6525
-2.44479
-2.25448
-2.07863
-1.91452
-1.76055
-1.61611
-1.48077
-1.35494
-1.23854
-1.13164
-1.03583
-0.951852
-0.879106
-0.815285
-0.756589
-0.700615
-0.646558
-0.594395
-0.544944
-0.498781
-0.456452
-0.418286
-0.384425
-0.354798
-0.329196
-0.307286
-0.288684
-0.273009
-0.259894
-0.249037
-0.240141
-0.232965
-0.227269
-0.222844
-0.2195
-0.217067
-0.215394
-0.214335
-0.213752
-0.213495
-0.213392
-0.213259
-0.212861
-0.211983
-0.210397
-0.207959
-0.204609
-0.200321
-0.195203
-0.189256
-0.18266
-0.175299
-0.167186
-0.158566
-0.149482
-0.140121
-0.1306
-0.121065
-0.111628
-0.102394
-0.0934447
-0.0848494
-0.0766597
-0.0689138
-0.0616381
-0.0548481
-0.0485504
-0.0427434
-0.0374185
-0.0325616
-0.0281539
-0.0241729
-0.0205936
-0.0173893
-0.0145323
-0.0119949
-0.00974963
-0.00777013
-0.00603114
-0.00450892
-0.00318141
-0.00202829
-0.00103102
-0.000172797
0.000561521
0.00118549
0.00171121
0.00214944
0.00250975
0.00280062
0.00302955
0.00320322
0.00332756
0.00340784
0.00344875
0.00345449
0.00342882
0.00337509
0.00329633
0.00319524
0.00307425
0.00293553
0.00278103
0.00261246
0.00243136
0.00223907
0.00203673
0.00182535
0.0016057
0.00137849
0.00114399
0.000902965
0.000654287
0.000400999
0.000137227
-4.85297
-4.84868
-4.83719
-4.83003
-4.83214
-4.83704
-4.84194
-4.84453
-4.84378
-4.83913
-4.83025
-4.81696
-4.79909
-4.77652
-4.74912
-4.71676
-4.67933
-4.63671
-4.58878
-4.53547
-4.47664
-4.41229
-4.34228
-4.26671
-4.18547
-4.09873
-4.00663
-3.9092
-3.80604
-3.69704
-3.57786
-3.44163
-3.28442
-3.10085
-2.89307
-2.67838
-2.4737
-2.28399
-2.10785
-1.9431
-1.78822
-1.64262
-1.50585
-1.3783
-1.25996
-1.15082
-1.05257
-0.965952
-0.890029
-0.822719
-0.760609
-0.701397
-0.644477
-0.589998
-0.53874
-0.491268
-0.448102
-0.40952
-0.375603
-0.346201
-0.321023
-0.299653
-0.281634
-0.266532
-0.25395
-0.243585
-0.235142
-0.228391
-0.223098
-0.219062
-0.216098
-0.214043
-0.212755
-0.212096
-0.211935
-0.212125
-0.212485
-0.212819
-0.21285
-0.212332
-0.210993
-0.208675
-0.205322
-0.200931
-0.195637
-0.189461
-0.182581
-0.174928
-0.166558
-0.157698
-0.148412
-0.138887
-0.129247
-0.119637
-0.110168
-0.100938
-0.0920252
-0.0834891
-0.0753749
-0.0677148
-0.0605302
-0.0538328
-0.0476262
-0.0419067
-0.0366647
-0.0318851
-0.027549
-0.0236336
-0.0201141
-0.0169641
-0.0141561
-0.0116628
-0.00945726
-0.00751328
-0.00580602
-0.00431211
-0.00300981
-0.00187911
-0.000901737
-6.11551e-05
0.00065754
0.00126769
0.00178121
0.00220869
0.00255953
0.00284207
0.00306369
0.00323096
0.0033497
0.00342509
0.00346175
0.0034638
0.00343493
0.00337845
0.00329732
0.0031942
0.00307147
0.00293129
0.00277556
0.00260597
0.00242403
0.00223106
0.00202821
0.00181645
0.00159658
0.00136931
0.00113498
0.000894373
0.00064673
0.000394844
0.000134463
-4.85632
-4.85258
-4.84127
-4.8331
-4.83418
-4.83845
-4.84289
-4.84517
-4.84419
-4.83937
-4.83038
-4.81701
-4.79909
-4.77648
-4.74905
-4.71668
-4.67924
-4.63661
-4.58868
-4.53536
-4.47653
-4.41217
-4.34213
-4.26651
-4.18518
-4.09826
-4.00579
-3.90767
-3.80341
-3.69248
-3.57167
-3.43615
-3.28264
-3.10651
-2.90853
-2.70168
-2.50085
-2.31237
-2.13629
-1.97109
-1.81541
-1.66873
-1.53057
-1.4013
-1.281
-1.1696
-1.06887
-0.979545
-0.900438
-0.829603
-0.763946
-0.701312
-0.641318
-0.584292
-0.53103
-0.482106
-0.438032
-0.399035
-0.365127
-0.336058
-0.311446
-0.290769
-0.273482
-0.259086
-0.247148
-0.237368
-0.229456
-0.223205
-0.218382
-0.214798
-0.212274
-0.210656
-0.209811
-0.209615
-0.209944
-0.210657
-0.211568
-0.21246
-0.213008
-0.212917
-0.211859
-0.209659
-0.206276
-0.201739
-0.196226
-0.189768
-0.182567
-0.174584
-0.165909
-0.156765
-0.147234
-0.137512
-0.127727
-0.118028
-0.108519
-0.099295
-0.0904234
-0.0819561
-0.0739294
-0.0663684
-0.0592883
-0.0526964
-0.0465932
-0.0409728
-0.0358242
-0.0311316
-0.0268756
-0.0230336
-0.0195809
-0.0164913
-0.0137379
-0.0112937
-0.00913216
-0.00722757
-0.00555549
-0.00409294
-0.00281856
-0.00171267
-0.000757329
6.37324e-05
0.000765148
0.00136003
0.00186006
0.00227566
0.00261603
0.00288938
0.00310293
0.00326314
0.00337571
0.00344572
0.00347769
0.00347567
0.00344328
0.00338377
0.00330002
0.00319467
0.00307005
0.00292826
0.00277118
0.00260047
0.00241762
0.00222392
0.00202051
0.00180836
0.00158827
0.00136096
0.00112685
0.000886722
0.000640136
0.000389651
0.000132186
-4.8588
-4.85576
-4.84499
-4.83607
-4.8362
-4.83985
-4.84384
-4.84581
-4.84461
-4.83963
-4.83053
-4.81707
-4.79909
-4.77645
-4.74899
-4.7166
-4.67914
-4.63651
-4.58857
-4.53525
-4.47642
-4.41204
-4.34199
-4.26632
-4.1849
-4.0978
-4.00501
-3.90632
-3.8012
-3.68893
-3.56705
-3.43219
-3.28168
-3.11161
-2.92209
-2.72274
-2.52626
-2.33955
-2.16387
-1.99839
-1.84202
-1.69429
-1.55477
-1.42378
-1.30148
-1.18779
-1.08452
-0.992418
-0.910093
-0.835701
-0.766393
-0.700183
-0.636924
-0.57713
-0.521672
-0.471156
-0.426115
-0.386722
-0.352912
-0.32432
-0.300448
-0.280647
-0.264254
-0.250691
-0.239484
-0.230353
-0.223022
-0.217317
-0.213016
-0.209936
-0.207905
-0.206777
-0.206435
-0.206765
-0.207663
-0.208993
-0.210566
-0.212146
-0.213335
-0.213771
-0.213044
-0.210959
-0.207504
-0.202761
-0.196971
-0.190173
-0.1826
-0.174234
-0.1652
-0.155724
-0.145904
-0.135952
-0.125999
-0.116198
-0.106647
-0.0974341
-0.0886147
-0.0802301
-0.0723066
-0.0648607
-0.0579011
-0.0514301
-0.0454444
-0.039936
-0.0348925
-0.0302974
-0.0261309
-0.0223707
-0.0189922
-0.0159697
-0.0132766
-0.0108867
-0.00877369
-0.00691253
-0.00527921
-0.00385119
-0.00260752
-0.00152891
-0.000597767
0.000201855
0.000884303
0.00146242
0.00194767
0.00235023
0.00267915
0.00294242
0.00314715
0.00329963
0.00340544
0.00346956
0.00349642
0.00348996
0.00345373
0.0033909
0.00330432
0.00319653
0.00306984
0.0029263
0.00276775
0.00259583
0.00241199
0.00221751
0.0020135
0.00180094
0.00158063
0.0013533
0.00111942
0.000879813
0.000634277
0.000385157
0.000130256
-4.86035
-4.85808
-4.84817
-4.83881
-4.83813
-4.84121
-4.84478
-4.84645
-4.84503
-4.83989
-4.83067
-4.81713
-4.7991
-4.77641
-4.74892
-4.71651
-4.67904
-4.6364
-4.58846
-4.53513
-4.47629
-4.41191
-4.34184
-4.26612
-4.18463
-4.09737
-4.00431
-3.90515
-3.79938
-3.68623
-3.56369
-3.42952
-3.28155
-3.11647
-2.93418
-2.74183
-2.54993
-2.36545
-2.19053
-2.02499
-1.86806
-1.71939
-1.57854
-1.44584
-1.32153
-1.2055
-1.09962
-1.00465
-0.919022
-0.840994
-0.767893
-0.697926
-0.631189
-0.568385
-0.510529
-0.458282
-0.412227
-0.372479
-0.338879
-0.310917
-0.287972
-0.269249
-0.253947
-0.241388
-0.231043
-0.22266
-0.215991
-0.210911
-0.207204
-0.204696
-0.203217
-0.202633
-0.202841
-0.203747
-0.205268
-0.207283
-0.209607
-0.211982
-0.213914
-0.214947
-0.214565
-0.21256
-0.208974
-0.203968
-0.197855
-0.190662
-0.182661
-0.173855
-0.164406
-0.154548
-0.144395
-0.13418
-0.124038
-0.114127
-0.104536
-0.0953432
-0.0865901
-0.0783054
-0.0705033
-0.0631908
-0.0563691
-0.050035
-0.0441817
-0.0387986
-0.0338721
-0.029385
-0.0253175
-0.0216473
-0.0183502
-0.0154012
-0.0127743
-0.0104435
-0.00838356
-0.00656972
-0.00497859
-0.00358811
-0.00237782
-0.00132883
-0.000423948
0.000352424
0.00101431
0.00157428
0.00204351
0.00243198
0.00274849
0.00300087
0.00319606
0.00334019
0.00343872
0.00349648
0.00351782
0.00350657
0.0034662
0.0033998
0.00331016
0.00319975
0.00307084
0.00292542
0.0027653
0.00259207
0.00240718
0.00221186
0.00200722
0.00179422
0.00157368
0.00134634
0.00111272
0.000873638
0.000629116
0.000381298
0.000128633
-4.86098
-4.85952
-4.8507
-4.84125
-4.83991
-4.84251
-4.84569
-4.84708
-4.84545
-4.84015
-4.83081
-4.81719
-4.7991
-4.77637
-4.74885
-4.71642
-4.67894
-4.63628
-4.58834
-4.53501
-4.47617
-4.41177
-4.34169
-4.26594
-4.18438
-4.09698
-4.0037
-3.90417
-3.79793
-3.68421
-3.56136
-3.42791
-3.28214
-3.12123
-2.94513
-2.75916
-2.57191
-2.39001
-2.21616
-2.05079
-1.89344
-1.74389
-1.60177
-1.46739
-1.34103
-1.22265
-1.11409
-1.01614
-0.927118
-0.845362
-0.768319
-0.69441
-0.623979
-0.557905
-0.497436
-0.443313
-0.396203
-0.35616
-0.322928
-0.295827
-0.274076
-0.256704
-0.242725
-0.231321
-0.221907
-0.214287
-0.208272
-0.203816
-0.200718
-0.19881
-0.197921
-0.197923
-0.198729
-0.200269
-0.202495
-0.205316
-0.208559
-0.211936
-0.214814
-0.216583
-0.216579
-0.214588
-0.210755
-0.205379
-0.198864
-0.191208
-0.182715
-0.173407
-0.163485
-0.153195
-0.142665
-0.132156
-0.121809
-0.111782
-0.102159
-0.0930003
-0.0843328
-0.0761691
-0.0685101
-0.0613518
-0.0546874
-0.048508
-0.0428028
-0.0375593
-0.0327623
-0.0283942
-0.0244353
-0.0208636
-0.0176555
-0.0147865
-0.0122314
-0.00996498
-0.00796242
-0.00619978
-0.00465424
-0.00330431
-0.00213001
-0.00111295
-0.000236348
0.000515002
0.00115478
0.00169523
0.00214727
0.00252059
0.0028238
0.00306451
0.00324947
0.00338465
0.00347537
0.00352634
0.00354176
0.0035254
0.0034806
0.00341039
0.00331747
0.00320427
0.00307298
0.00292556
0.00276376
0.00258915
0.00240313
0.00220692
0.00200162
0.00178817
0.00156739
0.00134003
0.00110666
0.00086811
0.000624551
0.000377955
0.000127255
-4.86073
-4.86007
-4.85253
-4.84332
-4.84153
-4.84371
-4.84656
-4.84769
-4.84585
-4.8404
-4.83095
-4.81725
-4.7991
-4.77632
-4.74878
-4.71633
-4.67883
-4.63617
-4.58822
-4.53488
-4.47604
-4.41164
-4.34154
-4.26576
-4.18415
-4.09664
-4.00318
-3.90338
-3.79679
-3.68276
-3.55984
-3.42715
-3.28334
-3.12598
-2.95518
-2.77498
-2.59228
-2.41318
-2.2407
-2.07573
-1.91812
-1.7678
-1.62446
-1.48843
-1.36003
-1.23925
-1.12793
-1.02691
-0.934362
-0.848762
-0.767602
-0.689549
-0.615183
-0.545539
-0.482211
-0.426061
-0.377889
-0.337656
-0.304961
-0.278914
-0.25859
-0.242835
-0.230448
-0.22043
-0.212088
-0.205301
-0.19999
-0.19622
-0.193807
-0.192571
-0.192328
-0.192959
-0.194391
-0.19659
-0.199552
-0.203231
-0.207502
-0.212039
-0.216021
-0.218609
-0.218952
-0.216872
-0.212691
-0.206895
-0.199957
-0.191788
-0.182725
-0.172845
-0.162392
-0.15162
-0.14067
-0.129837
-0.119273
-0.109134
-0.0994916
-0.090388
-0.0818303
-0.073813
-0.0663217
-0.0593408
-0.0528547
-0.0468488
-0.0413085
-0.0362191
-0.0315644
-0.0273266
-0.023486
-0.0200213
-0.0169097
-0.0141272
-0.0116496
-0.00945237
-0.00751156
-0.00580392
-0.00430728
-0.00300078
-0.00186501
-0.000882092
-3.57071e-05
0.000688928
0.00130512
0.00182476
0.00225847
0.00261568
0.00290472
0.00313302
0.0033071
0.00343278
0.00351521
0.00355896
0.00356812
0.00354632
0.00349683
0.00342258
0.00332619
0.00321004
0.00307623
0.00292669
0.00276311
0.00258704
0.00239983
0.00220269
0.00199669
0.00178276
0.00156173
0.00133435
0.00110122
0.000863181
0.000620523
0.000375062
0.000126083
-4.85972
-4.8598
-4.85365
-4.84498
-4.84294
-4.84482
-4.84738
-4.84826
-4.84624
-4.84064
-4.83109
-4.81731
-4.79909
-4.77628
-4.7487
-4.71623
-4.67872
-4.63604
-4.58809
-4.53475
-4.47591
-4.4115
-4.3414
-4.26559
-4.18393
-4.09634
-4.00275
-3.90276
-3.79595
-3.68178
-3.55898
-3.42708
-3.28503
-3.13075
-2.9645
-2.78946
-2.61115
-2.43498
-2.26408
-2.09972
-1.94201
-1.79103
-1.64656
-1.50892
-1.37848
-1.25527
-1.14113
-1.03692
-0.940705
-0.851135
-0.765665
-0.68325
-0.604691
-0.531125
-0.464661
-0.406318
-0.357035
-0.316696
-0.284796
-0.260188
-0.241713
-0.228019
-0.217629
-0.209283
-0.202139
-0.196174
-0.191497
-0.188363
-0.186622
-0.186072
-0.186502
-0.187791
-0.189878
-0.192776
-0.196557
-0.20125
-0.20681
-0.212844
-0.218229
-0.221724
-0.222237
-0.219722
-0.214865
-0.208465
-0.201037
-0.192306
-0.182613
-0.172108
-0.16107
-0.149772
-0.138362
-0.127179
-0.116394
-0.106149
-0.0965094
-0.0874875
-0.0790698
-0.0712284
-0.0639328
-0.0571547
-0.0508696
-0.0450571
-0.0396991
-0.0347789
-0.0302796
-0.0261834
-0.022471
-0.0191219
-0.0161141
-0.0134246
-0.01103
-0.00890693
-0.00703212
-0.00538317
-0.00393866
-0.00267841
-0.00158363
-0.000636994
0.000177308
0.000873605
0.00146479
0.0019624
0.00237671
0.00271686
0.00299094
0.00320612
0.00336872
0.00348437
0.00355805
0.00359419
0.00359674
0.00356922
0.00351479
0.00343628
0.00333625
0.00321697
0.00308053
0.00292875
0.00276332
0.00258571
0.00239725
0.00219913
0.0019924
0.00177797
0.00155667
0.00132925
0.00109635
0.000858793
0.000616968
0.000372549
0.000125082
-4.85804
-4.85881
-4.8541
-4.84622
-4.84414
-4.84581
-4.84813
-4.8488
-4.84661
-4.84087
-4.83121
-4.81735
-4.79908
-4.77622
-4.74862
-4.71612
-4.6786
-4.63592
-4.58796
-4.53462