# vtk DataFile Version 2.0
t_insac_ib
ASCII
DATASET STRUCTURED_GRID
DIMENSIONS 151 51 1
POINTS 7701 float
0 0 0
0.0703713 0 0
0.140743 0 0
0.211114 0 0
0.281485 0 0
0.351857 0 0
0.422228 0 0
0.492599 0 0
0.562971 0 0
0.633342 0 0
0.703713 0 0
0.774085 0 0
0.844456 0 0
0.914827 0 0
0.985199 0 0
1.05557 0 0
1.12594 0 0
1.19631 0 0
1.26668 0 0
1.33706 0 0
1.40743 0 0
1.4778 0 0
1.54817 0 0
1.61854 0 0
1.68891 0 0
1.75928 0 0
1.82965 0 0
1.90003 0 0
1.9704 0 0
2.04077 -0.00166634 0
2.11114 -0.0125128 0
2.18151 -0.0341173 0
2.25188 -0.0680912 0
2.32225 -0.117717 0
2.39263 -0.176764 0
2.463 -0.235812 0
2.53337 -0.294859 0
2.60374 -0.353906 0
2.67411 -0.412954 0
2.74448 -0.472001 0
2.81485 -0.531049 0
2.88522 -0.590096 0
2.9556 -0.649144 0
3.02597 -0.708191 0
3.09634 -0.767239 0
3.16671 -0.826286 0
3.23708 -0.885317 0
3.30745 -0.934009 0
3.37782 -0.967283 0
3.4482 -0.988302 0
3.51857 -0.998618 0
3.58894 -1 0
3.65931 -1 0
3.72968 -1 0
3.80005 -1 0
3.87042 -1 0
3.94079 -1 0
4.01117 -1 0
4.08154 -1 0
4.15191 -1 0
4.22228 -1 0
4.29265 -1 0
4.36302 -1 0
4.43339 -1 0
4.50377 -1 0
4.57414 -1 0
4.64451 -1 0
4.71488 -1 0
4.78525 -1 0
4.85562 -1 0
4.92599 -1 0
4.99636 -1 0
5.06674 -1 0
5.13711 -1 0
5.20748 -1 0
5.27785 -1 0
5.34822 -1 0
5.41859 -1 0
5.48896 -1 0
5.55934 -1 0
5.62971 -1 0
5.70008 -1 0
5.77045 -1 0
5.84082 -1 0
5.91119 -1 0
5.98156 -1 0
6.05193 -1 0
6.12231 -0.990625 0
6.19268 -0.98125 0
6.26305 -0.971875 0
6.33342 -0.9625 0
6.40379 -0.953125 0
6.47416 -0.94375 0
6.54453 -0.934375 0
6.61491 -0.925 0
6.68528 -0.915625 0
6.75565 -0.90625 0
6.82602 -0.896875 0
6.89639 -0.8875 0
6.96676 -0.878125 0
7.03713 -0.86875 0
7.1075 -0.859375 0
7.17788 -0.85 0
7.24825 -0.840625 0
7.31862 -0.83125 0
7.38899 -0.821875 0
7.45936 -0.8125 0
7.52973 -0.803125 0
7.6001 -0.79375 0
7.67048 -0.784375 0
7.74085 -0.775 0
7.81122 -0.765625 0
7.88159 -0.75625 0
7.95196 -0.746875 0
8.02233 -0.7375 0
8.0927 -0.728125 0
8.16307 -0.71875 0
8.23345 -0.709375 0
8.30382 -0.7 0
8.37419 -0.690625 0
8.44456 -0.68125 0
8.51493 -0.671875 0
8.5853 -0.6625 0
8.65567 -0.653125 0
8.72605 -0.64375 0
8.79642 -0.634375 0
8.86679 -0.625 0
8.93716 -0.615625 0
9.00753 -0.60625 0
9.0779 -0.596875 0
9.14827 -0.5875 0
9.21864 -0.578125 0
9.28902 -0.568749 0
9.35939 -0.559374 0
9.42976 -0.549999 0
9.50013 -0.540624 0
9.5705 -0.531249 0
9.64087 -0.521874 0
9.71124 -0.512499 0
9.78162 -0.503124 0
9.85199 -0.493749 0
9.92236 -0.484374 0
9.99273 -0.474999 0
10.0631 -0.465624 0
10.1335 -0.456249 0
10.2038 -0.446874 0
10.2742 -0.437499 0
10.3446 -0.428124 0
10.415 -0.418749 0
10.4853 -0.409374 0
10.5557 -0.399999 0
0 0.02 0
0.0703713 0.02 0
0.140743 0.02 0
0.211114 0.02 0
0.281485 0.02 0
0.351857 0.02 0
0.422228 0.02 0
0.492599 0.02 0
0.562971 0.02 0
0.633342 0.02 0
0.703713 0.02 0
0.774085 0.02 0
0.844456 0.02 0
0.914827 0.02 0
0.985199 0.02 0
1.05557 0.02 0
1.12594 0.02 0
1.19631 0.02 0
1.26668 0.02 0
1.33706 0.02 0
1.40743 0.02 0
1.4778 0.02 0
1.54817 0.02 0
1.61854 0.02 0
1.68891 0.02 0
1.75928 0.02 0
1.82965 0.02 0
1.90003 0.02 0
1.9704 0.02 0
2.04077 0.018367 0
2.11114 0.00773744 0
2.18151 -0.013435 0
2.25188 -0.0467294 0
2.32225 -0.0953622 0
2.39263 -0.153229 0
2.463 -0.211095 0
2.53337 -0.268962 0
2.60374 -0.326828 0
2.67411 -0.384695 0
2.74448 -0.442561 0
2.81485 -0.500428 0
2.88522 -0.558294 0
2.9556 -0.616161 0
3.02597 -0.674028 0
3.09634 -0.731894 0
3.16671 -0.789761 0
3.23708 -0.847611 0
3.30745 -0.895328 0
3.37782 -0.927937 0
3.4482 -0.948536 0
3.51857 -0.958645 0
3.58894 -0.96 0
3.65931 -0.96 0
3.72968 -0.96 0
3.80005 -0.96 0
3.87042 -0.96 0
3.94079 -0.96 0
4.01117 -0.96 0
4.08154 -0.96 0
4.15191 -0.96 0
4.22228 -0.96 0
4.29265 -0.96 0
4.36302 -0.96 0
4.43339 -0.96 0
4.50377 -0.96 0
4.57414 -0.96 0
4.64451 -0.96 0
4.71488 -0.96 0
4.78525 -0.96 0
4.85562 -0.96 0
4.92599 -0.96 0
4.99636 -0.96 0
5.06674 -0.96 0
5.13711 -0.96 0
5.20748 -0.96 0
5.27785 -0.96 0
5.34822 -0.96 0
5.41859 -0.96 0
5.48896 -0.96 0
5.55934 -0.96 0
5.62971 -0.96 0
5.70008 -0.96 0
5.77045 -0.96 0
5.84082 -0.96 0
5.91119 -0.96 0
5.98156 -0.96 0
6.05193 -0.96 0
6.12231 -0.950812 0
6.19268 -0.941625 0
6.26305 -0.932437 0
6.33342 -0.92325 0
6.40379 -0.914062 0
6.47416 -0.904875 0
6.54453 -0.895687 0
6.61491 -0.8865 0
6.68528 -0.877312 0
6.75565 -0.868125 0
6.82602 -0.858937 0
6.89639 -0.84975 0
6.96676 -0.840562 0
7.03713 -0.831375 0
7.1075 -0.822187 0
7.17788 -0.813 0
7.24825 -0.803812 0
7.31862 -0.794625 0
7.38899 -0.785437 0
7.45936 -0.77625 0
7.52973 -0.767062 0
7.6001 -0.757875 0
7.67048 -0.748687 0
7.74085 -0.7395 0
7.81122 -0.730312 0
7.88159 -0.721125 0
7.95196 -0.711937 0
8.02233 -0.70275 0
8.0927 -0.693562 0
8.16307 -0.684375 0
8.23345 -0.675187 0
8.30382 -0.666 0
8.37419 -0.656812 0
8.44456 -0.647625 0
8.51493 -0.638437 0
8.5853 -0.62925 0
8.65567 -0.620062 0
8.72605 -0.610875 0
8.79642 -0.601687 0
8.86679 -0.5925 0
8.93716 -0.583312 0
9.00753 -0.574125 0
9.0779 -0.564937 0
9.14827 -0.55575 0
9.21864 -0.546562 0
9.28902 -0.537374 0
9.35939 -0.528187 0
9.42976 -0.518999 0
9.50013 -0.509812 0
9.5705 -0.500624 0
9.64087 -0.491437 0
9.71124 -0.482249 0
9.78162 -0.473062 0
9.85199 -0.463874 0
9.92236 -0.454687 0
9.99273 -0.445499 0
10.0631 -0.436312 0
10.1335 -0.427124 0
10.2038 -0.417937 0
10.2742 -0.408749 0
10.3446 -0.399562 0
10.415 -0.390374 0
10.4853 -0.381187 0
10.5557 -0.371999 0
0 0.04 0
0.0703713 0.04 0
0.140743 0.04 0
0.211114 0.04 0
0.281485 0.04 0
0.351857 0.04 0
0.422228 0.04 0
0.492599 0.04 0
0.562971 0.04 0
0.633342 0.04 0
0.703713 0.04 0
0.774085 0.04 0
0.844456 0.04 0
0.914827 0.04 0
0.985199 0.04 0
1.05557 0.04 0
1.12594 0.04 0
1.19631 0.04 0
1.26668 0.04 0
1.33706 0.04 0
1.40743 0.04 0
1.4778 0.04 0
1.54817 0.04 0
1.61854 0.04 0
1.68891 0.04 0
1.75928 0.04 0
1.82965 0.04 0
1.90003 0.04 0
1.9704 0.04 0
2.04077 0.0384003 0
2.11114 0.0279877 0
2.18151 0.00724739 0
2.25188 -0.0253676 0
2.32225 -0.0730079 0
2.39263 -0.129693 0
2.463 -0.186379 0
2.53337 -0.243065 0
2.60374 -0.29975 0
2.67411 -0.356436 0
2.74448 -0.413121 0
2.81485 -0.469807 0
2.88522 -0.526493 0
2.9556 -0.583178 0
3.02597 -0.639864 0
3.09634 -0.696549 0
3.16671 -0.753235 0
3.23708 -0.809904 0
3.30745 -0.856648 0
3.37782 -0.888592 0
3.4482 -0.90877 0
3.51857 -0.918673 0
3.58894 -0.92 0
3.65931 -0.92 0
3.72968 -0.92 0
3.80005 -0.92 0
3.87042 -0.92 0
3.94079 -0.92 0
4.01117 -0.92 0
4.08154 -0.92 0
4.15191 -0.92 0
4.22228 -0.92 0
4.29265 -0.92 0
4.36302 -0.92 0
4.43339 -0.92 0
4.50377 -0.92 0
4.57414 -0.92 0
4.64451 -0.92 0
4.71488 -0.92 0
4.78525 -0.92 0
4.85562 -0.92 0
4.92599 -0.92 0
4.99636 -0.92 0
5.06674 -0.92 0
5.13711 -0.92 0
5.20748 -0.92 0
5.27785 -0.92 0
5.34822 -0.92 0
5.41859 -0.92 0
5.48896 -0.92 0
5.55934 -0.92 0
5.62971 -0.92 0
5.70008 -0.92 0
5.77045 -0.92 0
5.84082 -0.92 0
5.91119 -0.92 0
5.98156 -0.92 0
6.05193 -0.92 0
6.12231 -0.911 0
6.19268 -0.902 0
6.26305 -0.893 0
6.33342 -0.884 0
6.40379 -0.875 0
6.47416 -0.866 0
6.54453 -0.857 0
6.61491 -0.848 0
6.68528 -0.839 0
6.75565 -0.83 0
6.82602 -0.821 0
6.89639 -0.812 0
6.96676 -0.803 0
7.03713 -0.794 0
7.1075 -0.785 0
7.17788 -0.776 0
7.24825 -0.767 0
7.31862 -0.758 0
7.38899 -0.749 0
7.45936 -0.74 0
7.52973 -0.731 0
7.6001 -0.722 0
7.67048 -0.713 0
7.74085 -0.704 0
7.81122 -0.695 0
7.88159 -0.686 0
7.95196 -0.677 0
8.02233 -0.668 0
8.0927 -0.659 0
8.16307 -0.65 0
8.23345 -0.641 0
8.30382 -0.632 0
8.37419 -0.623 0
8.44456 -0.614 0
8.51493 -0.605 0
8.5853 -0.596 0
8.65567 -0.587 0
8.72605 -0.578 0
8.79642 -0.569 0
8.86679 -0.56 0
8.93716 -0.551 0
9.00753 -0.542 0
9.0779 -0.533 0
9.14827 -0.524 0
9.21864 -0.515 0
9.28902 -0.506 0
9.35939 -0.496999 0
9.42976 -0.487999 0
9.50013 -0.478999 0
9.5705 -0.469999 0
9.64087 -0.460999 0
9.71124 -0.451999 0
9.78162 -0.442999 0
9.85199 -0.433999 0
9.92236 -0.424999 0
9.99273 -0.415999 0
10.0631 -0.406999 0
10.1335 -0.397999 0
10.2038 -0.388999 0
10.2742 -0.379999 0
10.3446 -0.370999 0
10.415 -0.361999 0
10.4853 -0.352999 0
10.5557 -0.343999 0
0 0.06 0
0.0703713 0.06 0
0.140743 0.06 0
0.211114 0.06 0
0.281485 0.06 0
0.351857 0.06 0
0.422228 0.06 0
0.492599 0.06 0
0.562971 0.06 0
0.633342 0.06 0
0.703713 0.06 0
0.774085 0.06 0
0.844456 0.06 0
0.914827 0.06 0
0.985199 0.06 0
1.05557 0.06 0
1.12594 0.06 0
1.19631 0.06 0
1.26668 0.06 0
1.33706 0.06 0
1.40743 0.06 0
1.4778 0.06 0
1.54817 0.06 0
1.61854 0.06 0
1.68891 0.06 0
1.75928 0.06 0
1.82965 0.06 0
1.90003 0.06 0
1.9704 0.06 0
2.04077 0.0584336 0
2.11114 0.048238 0
2.18151 0.0279297 0
2.25188 -0.00400573 0
2.32225 -0.0506536 0
2.39263 -0.106158 0
2.463 -0.161663 0
2.53337 -0.217167 0
2.60374 -0.272672 0
2.67411 -0.328177 0
2.74448 -0.383681 0
2.81485 -0.439186 0
2.88522 -0.494691 0
2.9556 -0.550195 0
3.02597 -0.6057 0
3.09634 -0.661204 0
3.16671 -0.716709 0
3.23708 -0.772198 0
3.30745 -0.817968 0
3.37782 -0.849246 0
3.4482 -0.869004 0
3.51857 -0.878701 0
3.58894 -0.88 0
3.65931 -0.88 0
3.72968 -0.88 0
3.80005 -0.88 0
3.87042 -0.88 0
3.94079 -0.88 0
4.01117 -0.88 0
4.08154 -0.88 0
4.15191 -0.88 0
4.22228 -0.88 0
4.29265 -0.88 0
4.36302 -0.88 0
4.43339 -0.88 0
4.50377 -0.88 0
4.57414 -0.88 0
4.64451 -0.88 0
4.71488 -0.88 0
4.78525 -0.88 0
4.85562 -0.88 0
4.92599 -0.88 0
4.99636 -0.88 0
5.06674 -0.88 0
5.13711 -0.88 0
5.20748 -0.88 0
5.27785 -0.88 0
5.34822 -0.88 0
5.41859 -0.88 0
5.48896 -0.88 0
5.55934 -0.88 0
5.62971 -0.88 0
5.70008 -0.88 0
5.77045 -0.88 0
5.84082 -0.88 0
5.91119 -0.88 0
5.98156 -0.88 0
6.05193 -0.88 0
6.12231 -0.871187 0
6.19268 -0.862375 0
6.26305 -0.853562 0
6.33342 -0.84475 0
6.40379 -0.835937 0
6.47416 -0.827125 0
6.54453 -0.818312 0
6.61491 -0.8095 0
6.68528 -0.800687 0
6.75565 -0.791875 0
6.82602 -0.783062 0
6.89639 -0.77425 0
6.96676 -0.765437 0
7.03713 -0.756625 0
7.1075 -0.747812 0
7.17788 -0.739 0
7.24825 -0.730187 0
7.31862 -0.721375 0
7.38899 -0.712562 0
7.45936 -0.70375 0
7.52973 -0.694937 0
7.6001 -0.686125 0
7.67048 -0.677312 0
7.74085 -0.6685 0
7.81122 -0.659687 0
7.88159 -0.650875 0
7.95196 -0.642062 0
8.02233 -0.63325 0
8.0927 -0.624437 0
8.16307 -0.615625 0
8.23345 -0.606812 0
8.30382 -0.598 0
8.37419 -0.589187 0
[...]
POINT_DATA 7701
SCALARS pressure float 1
LOOKUP_TABLE default
-2.76192
-2.76648
-2.77287
-2.78462
-2.80359
-2.82116
-2.83634
-2.84756
-2.85443
-2.85676
-2.85454
-2.84778
-2.83652
-2.8208
-2.80067
-2.77617
-2.74734
-2.71421
-2.67683
-2.63525
-2.58953
-2.53975
-2.48595
-2.42838
-2.36706
-2.3026
-2.23544
-2.16659
-2.10065
-2.0408
-1.96428
-1.84744
-1.69071
-1.50212
-1.30742
-1.13414
-0.984671
-0.85009
-0.726244
-0.611175
-0.503986
-0.404346
-0.312155
-0.227675
-0.150867
-0.0826284
-0.0232473
0.0265986
0.066094
0.0985941
0.128309
0.156421
0.183859
0.211038
0.236766
0.260545
0.281916
0.300627
0.31658
0.3298
0.340409
0.348589
0.354554
0.358518
0.360673
0.36119
0.360203
0.357829
0.354165
0.349306
0.343347
0.336391
0.328551
0.319947
0.310709
0.300971
0.290864
0.280517
0.270039
0.259527
0.249051
0.238662
0.228398
0.218269
0.208357
0.1986
0.189517
0.180484
0.170921
0.16139
0.151872
0.142512
0.133388
0.124591
0.116195
0.108261
0.100829
0.0939245
0.0875534
0.08171
0.0763772
0.0715304
0.0671398
0.0631726
0.059595
0.056373
0.0534737
0.0508656
0.0485187
0.0464053
0.0444995
0.0427771
0.0412161
0.0397961
0.0384984
0.0373058
0.0362025
0.0351743
0.034208
0.0332917
0.0324149
0.0315677
0.0307415
0.0299287
0.0291225
0.0283168
0.0275064
0.0266868
0.025854
0.0250049
0.0241366
0.0232469
0.0223338
0.021396
0.0204322
0.0194417
0.0184237
0.017378
0.0163042
0.0152023
0.0140722
0.0129139
0.0117274
0.0105126
0.0092689
0.0079958
0.00669054
0.00535388
0.00396455
0.00255286
0.00115945
-2.76527
-2.76935
-2.77478
-2.78578
-2.8043
-2.82155
-2.83655
-2.84766
-2.85447
-2.85677
-2.85452
-2.84775
-2.83649
-2.82077
-2.80065
-2.77616
-2.74733
-2.71422
-2.67685
-2.63529
-2.58959
-2.53984
-2.48608
-2.42856
-2.36732
-2.30296
-2.23598
-2.16745
-2.10151
-2.04105
-1.96559
-1.85297
-1.7022
-1.51884
-1.32613
-1.15208
-1.00138
-0.865982
-0.741524
-0.625905
-0.518151
-0.417891
-0.324988
-0.239718
-0.16195
-0.0925455
-0.0318838
0.0196367
0.0610831
0.0952203
0.126135
0.155159
0.183245
0.210842
0.236853
0.260825
0.282323
0.30111
0.317098
0.330321
0.340909
0.349053
0.354973
0.35889
0.361
0.361475
0.360452
0.358044
0.35435
0.349462
0.343475
0.336491
0.328622
0.31999
0.310726
0.300962
0.290833
0.280466
0.269973
0.25945
0.248968
0.238576
0.228312
0.218181
0.208259
0.198483
0.189231
0.180021
0.17043
0.160886
0.151367
0.142015
0.132906
0.12413
0.115759
0.107853
0.100452
0.0935779
0.0872377
0.081424
0.0761195
0.0712989
0.0669325
0.0629873
0.0594295
0.0562254
0.0533419
0.0507477
0.0484132
0.0463105
0.044414
0.0426996
0.0411456
0.0397315
0.0384387
0.0372502
0.0361503
0.0351247
0.0341606
0.033246
0.0323703
0.0315239
0.0306982
0.0298856
0.0290793
0.0282733
0.0274625
0.0266423
0.0258089
0.024959
0.0240898
0.0231991
0.0222851
0.0213463
0.0203816
0.0193901
0.0183712
0.0173245
0.0162498
0.0151469
0.014016
0.0128568
0.0116695
0.0104538
0.00920921
0.00793513
0.00662879
0.00529069
0.00390065
0.00248745
0.000894026
-2.77102
-2.77417
-2.77786
-2.78764
-2.80544
-2.82223
-2.83693
-2.84787
-2.85455
-2.85678
-2.8545
-2.8477
-2.83643
-2.82072
-2.8006
-2.77611
-2.7473
-2.7142
-2.67686
-2.63533
-2.58966
-2.53994
-2.48623
-2.42878
-2.3676
-2.30335
-2.23644
-2.16798
-2.10095
-2.03759
-1.9621
-1.85556
-1.71486
-1.54187
-1.3548
-1.18088
-1.02861
-0.89201
-0.766642
-0.650214
-0.541619
-0.440424
-0.346416
-0.259897
-0.180616
-0.109311
-0.0466309
0.00736223
0.0518391
0.0887471
0.121855
0.152659
0.182047
0.210478
0.23706
0.261408
0.283138
0.302042
0.318056
0.331233
0.341727
0.349747
0.355532
0.359318
0.361311
0.361686
0.360579
0.358101
0.354346
0.349404
0.343366
0.336334
0.328419
0.319743
0.310438
0.30064
0.290484
0.2801
0.269601
0.259085
0.248619
0.23825
0.228011
0.217902
0.207979
0.198183
0.188715
0.179282
0.169654
0.160081
0.150554
0.141204
0.132106
0.123352
0.115012
0.107144
0.0997858
0.0929588
0.0866673
0.0809024
0.0756455
0.0708704
0.0665467
0.0626411
0.0591195
0.0559482
0.0530943
0.0505266
0.0482155
0.0461335
0.0442552
0.0425568
0.0410165
0.0396143
0.0383317
0.0371518
0.0360592
0.0350397
0.0340805
0.03317
0.0322974
0.0314535
0.0306296
0.0298182
0.0290127
0.028207
0.0273962
0.0265757
0.0257417
0.024891
0.024021
0.0231293
0.0222142
0.0212742
0.0203082
0.0193155
0.0182953
0.0172473
0.0161714
0.0150674
0.0139352
0.0127749
0.0115865
0.0103697
0.00912403
0.00784883
0.00654141
0.00520194
0.00381262
0.00239903
0.000848836
-2.77666
-2.77887
-2.78093
-2.78956
-2.80667
-2.82302
-2.83742
-2.84816
-2.85471
-2.85685
-2.85451
-2.84768
-2.83639
-2.82067
-2.80055
-2.77607
-2.74726
-2.71418
-2.67685
-2.63533
-2.58968
-2.53998
-2.48629
-2.42884
-2.36766
-2.30334
-2.23621
-2.16715
-2.09794
-2.02991
-1.95177
-1.84843
-1.71571
-1.5534
-1.37479
-1.20369
-1.05108
-0.913735
-0.78767
-0.670572
-0.56126
-0.459257
-0.364289
-0.27668
-0.196155
-0.123307
-0.0590841
-0.0034008
0.043292
0.0824903
0.117565
0.150094
0.180853
0.210225
0.237481
0.262269
0.284254
0.303256
0.319242
0.332294
0.342596
0.350388
0.35594
0.359509
0.361313
0.361536
0.360306
0.357731
0.353897
0.348888
0.342791
0.335705
0.327742
0.319024
0.309684
0.299861
0.289692
0.279314
0.268837
0.258365
0.247956
0.237655
0.227483
0.217431
0.207536
0.197739
0.188171
0.178632
0.168969
0.159356
0.149801
0.140429
0.131318
0.122561
0.114231
0.106384
0.0990578
0.0922699
0.0860228
0.0803056
0.0750974
0.0703708
0.0660938
0.0622324
0.0587522
0.0556189
0.0527998
0.0502634
0.0479804
0.0459236
0.0440676
0.0423889
0.0408659
0.0394788
0.0382094
0.0370409
0.0359581
0.034947
0.0339949
0.0330903
0.0322228
0.031383
0.0305624
0.0297537
0.0289503
0.0281462
0.0273365
0.0265168
0.0256833
0.0248328
0.0239627
0.0230708
0.0221554
0.0212149
0.0202484
0.019255
0.0182342
0.0171855
0.0161089
0.0150042
0.0138714
0.0127105
0.0115215
0.0103042
0.00905819
0.00778274
0.00647546
0.00513641
0.00375075
0.00234069
0.000819686
-2.78291
-2.78432
-2.78481
-2.79207
-2.80827
-2.82408
-2.83809
-2.84856
-2.85494
-2.85697
-2.85455
-2.84768
-2.83636
-2.82062
-2.8005
-2.77602
-2.74722
-2.71415
-2.67683
-2.63532
-2.58968
-2.54
-2.48631
-2.42886
-2.36763
-2.30319
-2.23573
-2.16591
-2.09461
-2.02219
-1.94095
-1.8396
-1.71352
-1.56144
-1.39248
-1.22603
-1.07415
-0.936442
-0.809811
-0.692084
-0.582048
-0.479203
-0.38322
-0.294438
-0.212583
-0.138115
-0.0722292
-0.0147661
0.0341734
0.0757454
0.112919
0.147317
0.179633
0.210143
0.238233
0.26357
0.285863
0.304963
0.320877
0.333722
0.34373
0.351182
0.356389
0.359643
0.361177
0.361185
0.359787
0.35708
0.353141
0.348043
0.341869
0.334715
0.32669
0.31792
0.308538
0.298689
0.288513
0.278152
0.267717
0.257317
0.247003
0.236811
0.226746
0.216787
0.20695
0.197171
0.187537
0.177911
0.168207
0.158539
0.148938
0.139525
0.130382
0.121609
0.113279
0.105449
0.0981534
0.0914087
0.0852132
0.079553
0.0744044
0.0697375
0.0655188
0.0617131
0.0582849
0.0551999
0.0524247
0.0499282
0.0476812
0.0456565
0.043829
0.0421755
0.0406748
0.0393072
0.0380548
0.0369011
0.0358311
0.0348311
0.0338884
0.0329918
0.032131
0.0312968
0.030481
0.0296761
0.0288757
0.0280741
0.0272662
0.0264479
0.0256154
0.0247655
0.0238958
0.023004
0.0220885
0.0211478
0.0201809
0.019187
0.0181657
0.0171165
0.0160394
0.0149341
0.0138008
0.0126395
0.0114501
0.0102325
0.00898637
0.00771108
0.00640458
0.00506688
0.00368632
0.00228177
0.000790789
-2.78877
-2.78968
-2.78894
-2.79481
-2.81002
-2.82524
-2.83883
-2.84903
-2.85522
-2.85711
-2.85461
-2.84768
-2.83633
-2.82058
-2.80045
-2.77597
-2.74717
-2.7141
-2.6768
-2.6353
-2.58967
-2.53999
-2.4863
-2.42882
-2.36753
-2.30292
-2.23507
-2.16443
-2.09135
-2.01544
-1.93141
-1.83107
-1.70989
-1.56633
-1.40668
-1.24591
-1.09583
-0.958313
-0.831383
-0.713179
-0.602527
-0.498921
-0.401991
-0.312082
-0.228944
-0.152907
-0.0853548
-0.0261614
0.0249
0.0688029
0.10816
0.144549
0.178554
0.210349
0.239388
0.26535
0.287975
0.307149
0.322924
0.335464
0.345054
0.352036
0.356774
0.359607
0.360789
0.360523
0.358915
0.35605
0.351985
0.346783
0.340521
0.333288
0.325195
0.316367
0.306942
0.29707
0.286895
0.276569
0.266204
0.255914
0.245739
0.235707
0.225802
0.215982
0.206245
0.196515
0.186863
0.177191
0.167447
0.157717
0.14805
0.138572
0.129376
0.120567
0.112223
0.1044
0.0971317
0.0904295
0.0842884
0.0786901
0.0736075
0.0690079
0.0648554
0.0611132
0.057745
0.0547155
0.0519913
0.0495411
0.0473359
0.0453486
0.0435545
0.0419307
0.0404561
0.0391116
0.0378794
0.0367434
0.0356888
0.034702
0.0337708
0.032884
0.0320316
0.0312046
0.0303947
0.0295948
0.0287985
0.0280003
0.0271952
0.026379
0.0255481
0.0246995
0.0238307
0.0229396
0.0220244
0.0210839
0.020117
0.0191231
0.0181016
0.0170522
0.0159747
0.0148692
0.0137357
0.0125742
0.0113848
0.0101673
0.00892158
0.00764705
0.00634209
0.00500685
0.00363246
0.00223488
0.000768444
-2.79398
-2.79471
-2.79316
-2.79771
-2.81186
-2.82648
-2.83964
-2.84954
-2.85552
-2.85728
-2.85468
-2.8477
-2.83631
-2.82054
-2.8004
-2.77592
-2.74713
-2.71406
-2.67677
-2.63528
-2.58966
-2.53998
-2.48628
-2.42876
-2.3674
-2.3026
-2.23439
-2.163
-2.08851
-2.01003
-1.92383
-1.82414
-1.70675
-1.57012
-1.41883
-1.26406
-1.11651
-0.979655
-0.85265
-0.734065
-0.622837
-0.518481
-0.420606
-0.329551
-0.245115
-0.167529
-0.0982952
-0.0373566
0.0157607
0.0619336
0.10349
0.141933
0.177741
0.210967
0.241081
0.267751
0.290739
0.30996
0.325526
0.337646
0.34668
0.353038
0.35716
0.359449
0.360184
0.35958
0.357719
0.354665
0.350454
0.345132
0.338765
0.33144
0.323267
0.314374
0.3049
0.295004
0.284835
0.274561
0.264291
0.254153
0.244169
0.234356
0.22467
0.215041
0.205447
0.195795
0.186157
0.176453
0.166664
0.156857
0.147099
0.137533
0.128259
0.119396
0.111024
0.103202
0.0959591
0.0893024
0.0832215
0.0776933
0.0726863
0.068164
0.0640878
0.0604191
0.0571202
0.054155
0.0514899
0.0490934
0.0469367
0.0449929
0.0432376
0.0416482
0.0402042
0.0388865
0.037678
0.0365627
0.0355261
0.034555
0.0336374
0.0327624
0.03192
0.0311015
0.0302989
0.0295052
0.0287141
0.0279201
0.0271185
0.0263052
0.0254766
0.0246298
0.0237624
0.0228723
0.0219578
0.0210178
0.0200513
0.0190576
0.0180361
0.0169867
0.0159093
0.0148038
0.0136702
0.0125088
0.0113196
0.0101026
0.0088576
0.00758431
0.0062815
0.00494952
0.003582
0.00219253
0.000748817
-2.79818
-2.79903
-2.79717
-2.80057
-2.8137
-2.82772
-2.84045
-2.85006
-2.85584
-2.85746
-2.85477
-2.84772
-2.83629
-2.8205
-2.80035
-2.77587
-2.74708
-2.71402
-2.67673
-2.63525
-2.58964
-2.53996
-2.48625
-2.4287
-2.36726
-2.30228
-2.23373
-2.16167
-2.08606
-2.00576
-1.918
-1.81885
-1.70447
-1.57346
-1.42941
-1.28054
-1.13607
-1.00036
-0.873595
-0.754821
-0.643142
-0.538124
-0.439367
-0.3472
-0.261469
-0.182332
-0.111371
-0.0486264
0.00656206
0.0550262
0.0988775
0.139507
0.177272
0.212102
0.243426
0.270892
0.294268
0.313501
0.328766
0.34033
0.348637
0.35419
0.357529
0.35914
0.359332
0.35833
0.35618
0.352915
0.348541
0.343083
0.336597
0.329167
0.320901
0.311933
0.302403
0.292481
0.282321
0.272112
0.261964
0.252023
0.242287
0.232763
0.223364
0.213988
0.20459
0.195051
0.185458
0.175737
0.165897
0.155995
0.146118
0.136433
0.127053
0.118115
0.109702
0.101873
0.0946525
0.0880433
0.0820281
0.0765775
0.0716547
0.0672189
0.0632285
0.0596422
0.0564211
0.0535282
0.0509294
0.0485933
0.0464909
0.044596
0.0428843
0.0413337
0.039924
0.0386368
0.0374549
0.036363
0.0353469
0.0343937
0.0334916
0.03263
0.0317993
0.0309907
0.0301966
0.0294101
0.028625
0.0278362
0.0270388
0.026229
0.0254033
0.0245589
0.0236933
0.0228047
0.0218914
0.0209522
0.0199863
0.0189931
0.017972
0.0169228
0.0158456
0.0147403
0.013607
0.012446
0.0112573
0.010041
0.00879713
0.00752553
0.00622543
0.00489741
0.00353717
0.00215641
0.000732612
-2.80125
-2.80249
-2.80077
-2.80331
-2.81549
-2.82895
-2.84127
-2.85059
-2.85616
-2.85764
-2.85485
-2.84774
-2.83628
-2.82046
-2.8003
-2.77581
-2.74703
-2.71398
-2.6767
-2.63523
-2.58962
-2.53994
-2.48622
-2.42863
-2.36712
-2.30196
-2.23312
-2.1605
-2.08402
-2.00245
-1.91362
-1.81499
-1.70311
-1.57668
-1.43882
-1.29554
-1.15445
-1.02028
-0.894022
-0.775229
-0.663207
-0.557594
-0.458005
-0.364756
-0.277742
-0.197075
-0.124376
-0.0597827
-0.00250671
0.048259
0.0944774
0.137406
0.17728
0.213898
0.246584
0.274947
0.298736
0.317933
0.332797
0.343651
0.351038
0.355569
0.357912
0.358671
0.358199
0.356729
0.35425
0.350754
0.346205
0.340599
0.333982
0.326433
0.318061
0.309006
0.299409
0.289456
0.279306
0.26918
0.259187
0.249502
0.240091
0.230945
0.221919
0.212867
0.203721
0.194328
0.184806
0.175069
0.165166
0.155144
0.145109
0.135269
0.125752
0.116715
0.108245
0.100401
0.0932026
0.0866445
0.0807018
0.0753376
0.0705088
0.0661697
0.0622749
0.0587808
0.0556463
0.0528339
0.0503089
0.0480398
0.045998
0.0441573
0.0424941
0.0409866
0.0396152
0.0383617
0.0372096
0.0361438
0.0351506
0.0342174
0.0333328
0.0324863
0.0316686
0.0308713
0.0300869
0.0293086
0.0285306
0.0277477
0.0269553
0.0261497
0.0253274
0.0244858
0.0236226
0.0227358
0.021824
0.020886
0.0199211
0.0189286
0.0179081
0.0168594
0.0157826
0.0146778
0.013545
0.0123845
0.0111966
0.00998137
0.00873898
0.00746949
0.00617254
0.00484901
0.00349628
0.00212461
0.000718784
-2.80314
-2.80496
-2.80383
-2.80583
-2.81718
-2.83013
-2.84207
-2.85111
-2.85649
-2.85782
-2.85494
-2.84777
-2.83627
-2.82042
-2.80025
-2.77576
-2.74698
-2.71393
-2.67666
-2.6352
-2.5896
-2.53992
-2.4862
-2.42856
-2.36699
-2.30168
-2.23258
-2.1595
-2.08234
-1.99992
-1.91042
-1.81233
-1.70258
-1.57997
-1.4474
-1.30927
-1.17171
-1.03942
-0.913965
-0.79536
-0.68314
-0.577037
-0.476692
-0.382409
-0.294128
-0.211932
-0.137462
-0.0709548
-0.0115284
0.0415977
0.0903026
0.135682
0.177861
0.216497
0.25073
0.280111
0.304348
0.323456
0.337791
0.347729
0.353934
0.357165
0.358273
0.358025
0.356802
0.354834
0.352022
0.348298
0.343571
0.337806
0.331038
0.32335
0.314851
0.30569
0.296008
0.286006
0.275852
0.265809
0.255987
0.246603
0.237585
0.228909
0.220353
0.211711
0.202887
0.19368
0.184256
0.174498
0.16451
0.154334
0.144094
0.134057
0.124364
0.115202
0.106658
0.0987912
0.0916137
0.0851107
0.0792475
0.0739788
0.0692541
0.0650219
0.0612327
0.05784
0.054801
0.0520769
0.0496328
0.0474372
0.0454615
0.0436802
0.04207
0.0406096
0.03928
0.0380634
0.0369439
0.0359068
0.0349388
0.0340276
0.0331621
0.0323323
0.0315291
0.0307443
0.0299706
0.0292016
0.0284315
0.0276553
0.0268686
0.0260677
0.0252495
0.0244112
0.0235507
0.0226662
0.0217562
0.0208198
0.0198561
0.0188645
0.0178449
0.016797
0.0157208
0.0146166
0.0134846
0.0123249
0.011138
0.00992412
0.00868352
0.00741649
0.00612308
0.00480443
0.00345929
0.00209681
0.000707076
-2.80388
-2.80641
-2.80624
-2.80806
-2.81875
-2.83125
-2.84283
-2.85162
-2.85681
-2.85801
-2.85503
-2.84779
-2.83625
-2.82039
-2.8002
-2.77571
-2.74693
-2.71389
-2.67663
-2.63518
-2.58958
-2.53991
-2.48617
-2.42851
-2.36688
-2.30143
-2.23211
-2.15867
-2.08101
-1.99803
-1.90817
-1.81065
-1.70278
-1.58339
-1.45532
-1.32188
-1.18788
-1.0577
-0.933308
-0.815094
-0.702826
-0.596344
-0.495329
-0.400077
-0.310563
-0.226856
-0.150599
-0.0821184
-0.0204674
0.035089
0.0864193
0.134419
0.179132
0.220067
0.256067
0.286618
0.311333
0.330267
0.343934
0.352779
0.357561
0.359192
0.358739
0.357205
0.355047
0.352482
0.349292
0.345324
0.340415
0.334484
0.327556
0.319716
0.311075
0.301795
0.292013
0.281952
0.271793
0.261856
0.252258
0.243272
0.234779
0.226721
0.218761
0.210617
0.202171
0.193175
0.183868
0.174078
0.163975
0.153599
0.143095
0.132805
0.122892
0.113574
0.104938
0.0970411
0.0898841
0.0834409
0.0776655
0.0725021
0.0678921
0.0637775
0.0601041
0.0568222
0.0538872
0.0512594
0.0489032
0.0467872
0.0448833
0.0431663
0.0416133
0.040204
0.0389195
0.037743
0.0366588
0.0356527
0.034712
0.0338246
0.03298
0.0321684
0.031381
0.03061
0.0298481
0.0290893
0.0283279
0.0275591
0.0267788
0.0259833
0.0251696
0.0243351
0.0234777
0.0225958
0.021688
0.0207534
0.0197912
0.0188009
0.0177823
0.0167353
0.0156601
0.0145567
0.0134256
0.012267
0.0110813
0.00986904
0.00863051
0.00736626
0.00607666
0.00476319
0.00342562
0.00207226
0.000697045
-2.80355
-2.80688
-2.80795
-2.80994
-2.82016
-2.8323
-2.84357
-2.85211
-2.85712
-2.85818
-2.85512
-2.84782
-2.83624
-2.82035
-2.80015
-2.77566
-2.74688
-2.71385
-2.67659
-2.63516
-2.58957
-2.5399
-2.48616
-2.42847
-2.36678
-2.30122
-2.23173
-2.158
-2.07998
-1.99668
-1.90669
-1.80978
-1.70358
-1.58698
-1.46277
-1.33356
-1.20303
-1.07515
-0.95204
-0.83442
-0.722268
-0.615536
-0.513952
-0.41781
-0.327107
-0.24191
-0.163849
-0.0933343
-0.0293646
0.0287127
0.0828456
0.133671
0.181196
0.224794
0.262843
0.294755
0.320019
0.338743
0.351576
0.358977
0.361845
0.361346
0.358946
0.355981
0.352897
0.349835
0.346391
0.342281
0.337248
0.331159
0.324046
0.316019
0.307197
0.29776
0.287829
0.277648
0.26741
0.257518
0.248108
0.239531
0.231619
0.224301
0.217091
0.209586
0.201629
0.19291
0.183739
0.173879
0.163609
0.152975
0.142131
0.131523
0.12134
0.111833
0.103086
0.0951508
0.0880146
0.0816371
0.0759584
0.070911
0.0664266
0.0624405
0.0588931
0.0557315
0.0529091
0.050385
0.0481234
0.046093
0.0442661
0.0426179
0.0411265
0.0397717
0.0385357
0.0374019
0.0363555
0.0353828
0.0344713
0.0336097
0.0327875
0.0319955
0.0312252
0.0304689
0.0297199
0.0289721
0.0282202
0.0274596
0.0266862
0.0258966
0.0250879
0.0242576
0.0234038
0.0225249
0.0216196
0.020687
0.0197265
0.0187377
0.0177205
0.0166746
0.0156005
0.0144982
0.0133682
0.0122108
0.0110266
0.00981614
0.00857993
0.0073187
0.00603316
0.00472505
0.00339494
0.0020505
0.000688406
-2.80229
-2.80644
-2.80897
-2.81146
-2.82139
-2.83325
-2.84425
-2.85258
-2.85741
-2.85835
-2.8552
-2.84784
-2.83622
-2.82031
-2.8001
-2.77561
-2.74683
-2.71381
-2.67656
-2.63513
-2.58956
-2.53989
-2.48615
-2.42844
-2.36671
-2.30106
-2.23144
-2.15751
-2.07923
-1.99577
-1.90585
-1.80956
-1.70489
-1.59073
-1.46986
-1.34443
-1.21723
-1.09175
-0.970116
-0.85328
-0.74141
-0.634565
-0.53253
-0.435592
-0.343766
-0.257114
-0.177244
-0.104644
-0.0382517
0.022444
0.0795924
0.133474
0.184147
0.230859
0.271293
0.304836
0.33072
0.349007
0.360712
0.366517
0.367327
0.364451
0.359699
0.354886
0.350584
0.346826
0.342993
0.338651
0.333437
0.327147
0.31982
0.311584
0.302564
0.292961
0.282876
0.272583
0.262291
0.252512
0.24341
0.23542
0.228325
0.221984
0.215664
0.208851
0.201385
0.192946
0.18393
0.173974
0.163479
0.152513
0.141236
0.130224
0.119715
0.109979
0.101101
0.093119
0.0860052
0.0797001
0.0741281
0.069208
0.0648611
0.0610145
0.0576035
0.0545716
0.05187
0.0494571
0.0472966
0.0453575
0.0436125
0.0420376
0.0406114
0.0393146
0.03813
0.0370417
0.0360355
0.0350982
0.0342178
0.0333834
0.0325852
0.0318141
0.031062
0.0303216
0.0295863
0.0288504
0.0281087
0.0273569
0.026591
0.0258078
0.0250046
0.0241789
0.023329
0.0224534
0.0215509
0.0206207
0.0196622
0.0186751
0.0176594
0.0166149
0.015542
0.014441
0.0133122
0.0121563
0.0109738
0.00976534
0.00853166
0.00727366
0.00599235
0.00468969
0.0033669
0.0020311
0.000680899
-2.80024
-2.80519
-2.80933
-2.8126
-2.82244
-2.8341
-2.84488
-2.85301
-2.85769
-2.85851
-2.85528
-2.84786
-2.8362
-2.82027
-2.80005
-2.77555
-2.74678
-2.71377
-2.67653
-2.63512
-2.58955
-2.53989
-2.48616
-2.42843
-2.36668
-2.30095
-2.23123
-2.15716
-2.07874
-1.99525
-1.90551
-1.80988
-1.70662
-1.59464
-1.47668
-1.35463
-1.23059
-1.10753
-0.987526
-0.871647
-0.760223
-0.653413
-0.551053
-0.453429
-0.360562
-0.272507
-0.190832
-0.116111
-0.0471868
0.0162242
0.07664
0.133851
0.188067
0.238512
0.281803
0.317235
0.343858
0.3619
0.372492
0.376187
0.37387
0.367202
0.359069
0.35211
0.346711
0.34263
0.338885
0.334738
0.32964
0.323288
0.315761
0.30729
0.298033
0.288217
0.277867
0.267284
0.256718
0.246842
0.237907
0.23047
0.22427
0.219177
0.214131
0.208318
0.201576
0.19354
0.184637
0.174459
0.163622
0.152232
0.140411
0.1289
0.11801
0.108003
0.0989767
0.0909429
0.0838549
0.0776309
0.072177
0.0673966
0.0631993
0.0595038
0.0562396
0.0533466
0.0507741
0.0484793
0.0464261
0.0445837
0.0429253
0.0414277
0.0400703
0.0388347
0.0377042
0.0366639
0.0357
0.0348
0.0339524
0.0331469
0.032374
0.031625
0.0308922
0.0301685
0.0294478
0.0287245
0.0279938
0.0272514
0.0264936
0.0257173
0.0249199
0.0240993
0.0232536
0.0223816
0.0214822
0.0205546
0.0195983
0.0186132
0.0175991
0.0165562
0.0154847
0.0143851
0.0132578
0.0121035
0.0109229
0.0097166
0.00848563
0.00723103
0.00595405
0.00465688
0.00334119
0.0020137
0.000674323
-2.79756
-2.80327
-2.80909
-2.81338
-2.82329
-2.83485
-2.84545
-2.85341
-2.85794